ITEM: TIMESTEP
0
ITEM: NUMBER OF ATOMS
90
ITEM: BOX BOUNDS ss ss ss
-6.51938 6.96699
-4.25862 5.70691
-5.59681 5.10615
ITEM: ATOMS id type xs ys zs ix iy iz
24 3 0.491484 0.298097 0.563551 0 0 0
27 4 0.419253 0.207214 0.502714 0 0 0
29 1 0.452561 0.379604 0.610478 0 0 0
30 2 0.366895 0.181184 0.567279 0 0 0
31 3 0.367719 0.260223 0.390893 0 0 0
32 3 0.290636 0.372725 0.415535 0 0 0
33 1 0.422821 0.295627 0.323803 0 0 0
34 1 0.32954 0.175891 0.346988 0 0 0
35 4 0.199723 0.318426 0.478828 0 0 0
36 1 0.27229 0.416235 0.324689 0 0 0
37 1 0.323859 0.454268 0.469441 0 0 0
42 4 0.403404 0.352324 0.878407 0 0 0
45 2 0.398714 0.270035 0.935172 0 0 0
46 3 0.102658 0.351902 0.417574 0 0 0
47 3 0.0764735 0.252412 0.311596 0 0 0
48 1 0.103198 0.454584 0.381527 0 0 0
49 1 0.0418252 0.346984 0.484876 0 0 0
50 4 0.142339 0.264543 0.203209 0 0 0
51 1 0.000741489 0.271171 0.279958 0 0 0
52 1 0.0804931 0.14975 0.34684 0 0 0
53 2 0.132862 0.358933 0.16776 0 0 0
54 2 0.117087 0.198929 0.137053 0 0 0
55 3 0.200099 0.326321 0.618697 0 0 0
56 3 0.151004 0.202552 0.680192 0 0 0
57 1 0.275585 0.331785 0.654904 0 0 0
58 1 0.162269 0.417574 0.649504 0 0 0
59 4 0.20202 0.0782437 0.644759 0 0 0
60 1 0.0732273 0.194832 0.653243 0 0 0
61 1 0.154561 0.212591 0.781683 0 0 0
62 2 0.192874 0.0666176 0.550561 0 0 0
63 2 0.164893 0.00100346 0.686732 0 0 0
69 1 0.483876 0.854225 0.267682 0 0 0
72 2 0.445605 0.881012 0.480731 0 0 0
78 1 0.471626 0.638466 0.190606 0 0 0
81 2 0.434406 0.442179 0.0858249 0 0 0
82 3 0.496068 0.293932 0.791216 0 0 0
83 3 0.399767 0.37408 0.783585 0 0 0
84 1 0.499897 0.23897 0.87965 0 0 0
86 4 0.313944 0.285167 0.799962 0 0 0
87 1 0.398722 0.431784 0.695329 0 0 0
88 1 0.397917 0.448106 0.859482 0 0 0
89 2 0.310423 0.219583 0.726918 0 0 0
90 2 0.250121 0.339765 0.796234 0 0 0
1 3 0.948273 0.66377 0.554491 0 0 0
2 3 0.862612 0.584424 0.615519 0 0 0
3 1 0.919587 0.735818 0.486789 0 0 0
4 1 0.999259 0.595181 0.507698 0 0 0
5 1 0.989017 0.719214 0.625923 0 0 0
6 4 0.812177 0.485234 0.531503 0 0 0
7 1 0.808499 0.655451 0.65287 0 0 0
8 1 0.894629 0.530484 0.694872 0 0 0
9 3 0.756947 0.373939 0.595115 0 0 0
10 3 0.676091 0.418273 0.690001 0 0 0
11 1 0.724021 0.308391 0.524851 0 0 0
12 1 0.811075 0.312666 0.645258 0 0 0
13 4 0.619098 0.302825 0.744286 0 0 0
14 1 0.625161 0.489239 0.646772 0 0 0
15 1 0.713812 0.472569 0.764844 0 0 0
16 3 0.772989 0.5323 0.407814 0 0 0
17 3 0.682595 0.628639 0.412342 0 0 0
18 1 0.753351 0.444648 0.351823 0 0 0
19 1 0.832832 0.58175 0.357016 0 0 0
20 4 0.665075 0.698473 0.290297 0 0 0
21 1 0.696239 0.702698 0.4854 0 0 0
22 1 0.616362 0.573059 0.439018 0 0 0
23 3 0.554891 0.219659 0.659816 0 0 0
25 1 0.505447 0.156467 0.715349 0 0 0
26 1 0.60315 0.150941 0.608723 0 0 0
28 1 0.540376 0.341059 0.492797 0 0 0
38 3 0.587468 0.316451 0.877824 0 0 0
39 3 0.500253 0.414497 0.901477 0 0 0
40 1 0.568542 0.217758 0.915393 0 0 0
41 1 0.651033 0.350577 0.932619 0 0 0
43 1 0.507535 0.503645 0.843033 0 0 0
44 1 0.501322 0.446459 0.999066 0 0 0
64 3 0.644525 0.846103 0.292236 0 0 0
65 3 0.539312 0.889475 0.33399 0 0 0
66 1 0.698509 0.89463 0.353588 0 0 0
67 1 0.657772 0.887408 0.199117 0 0 0
68 4 0.513501 0.841613 0.459361 0 0 0
70 1 0.535974 0.998997 0.335257 0 0 0
71 2 0.504435 0.740033 0.453345 0 0 0
73 3 0.632748 0.618076 0.179257 0 0 0
74 3 0.526856 0.558786 0.186956 0 0 0
75 1 0.637724 0.679845 0.0951382 0 0 0
76 1 0.684957 0.535577 0.165626 0 0 0
77 4 0.505936 0.475058 0.0773515 0 0 0
79 1 0.519344 0.496596 0.270068 0 0 0
80 2 0.508079 0.536583 0.000934321 0 0 0
85 1 0.560767 0.360045 0.78416 0 0 0
ITEM: TIMESTEP
25
ITEM: NUMBER OF ATOMS
90
ITEM: BOX BOUNDS ss ss ss
-6.53378 6.96896
-4.26488 5.70681
-5.59619 5.61643
ITEM: ATOMS id type xs ys zs ix iy iz
24 3 0.51047 0.28002 0.519419 0 0 0
27 4 0.424019 0.200578 0.472417 0 0 0
29 1 0.474144 0.372524 0.544494 0 0 0
30 2 0.374333 0.185442 0.540168 0 0 0
31 3 0.368347 0.258349 0.368945 0 0 0
32 3 0.28944 0.37183 0.388823 0 0 0
33 1 0.422327 0.294244 0.303947 0 0 0
34 1 0.329468 0.174796 0.327093 0 0 0
35 4 0.193919 0.318318 0.443671 0 0 0
36 1 0.273623 0.417347 0.302486 0 0 0
37 1 0.322072 0.452491 0.442363 0 0 0
42 4 0.453801 0.356776 0.90006 0 0 0
45 2 0.424762 0.285228 0.955947 0 0 0
46 3 0.0980511 0.355629 0.390079 0 0 0
47 3 0.0744364 0.252448 0.292934 0 0 0
48 1 0.1008 0.458321 0.357058 0 0 0
49 1 0.036829 0.35042 0.454391 0 0 0
50 4 0.142268 0.264384 0.191913 0 0 0
51 1 -0.00100982 0.269344 0.26252 0 0 0
52 1 0.0799904 0.150994 0.329628 0 0 0
53 2 0.133607 0.359084 0.158703 0 0 0
54 2 0.117894 0.19892 0.128578 0 0 0
55 3 0.185574 0.321815 0.573897 0 0 0
56 3 0.138231 0.198035 0.636896 0 0 0
57 1 0.261445 0.314384 0.590207 0 0 0
58 1 0.157422 0.417673 0.609434 0 0 0
59 4 0.198044 0.0787142 0.612053 0 0 0
60 1 0.0624187 0.184854 0.609371 0 0 0
61 1 0.134092 0.206945 0.733783 0 0 0
62 2 0.193549 0.0629086 0.522438 0 0 0
63 2 0.164981 -0.000152024 0.654077 0 0 0
69 1 0.484412 0.854401 0.255426 0 0 0
72 2 0.446036 0.880837 0.4586 0 0 0
78 1 0.472102 0.638486 0.182151 0 0 0
81 2 0.434966 0.442554 0.081995 0 0 0
82 3 0.436232 0.330097 0.778675 0 0 0
83 3 0.348033 0.412597 0.758402 0 0 0
84 1 0.439976 0.219281 0.773126 0 0 0
86 4 0.28584 0.300846 0.790244 0 0 0
87 1 0.34925 0.453407 0.667524 0 0 0
88 1 0.34035 0.498646 0.817397 0 0 0
89 2 0.302956 0.228357 0.725483 0 0 0
90 2 0.21946 0.337348 0.771346 0 0 0
1 3 0.948912 0.664889 0.529056 0 0 0
2 3 0.863479 0.585936 0.587244 0 0 0
3 1 0.920076 0.736576 0.464364 0 0 0
4 1 0.999597 0.595898 0.484532 0 0 0
5 1 0.989472 0.720085 0.597397 0 0 0
6 4 0.81457 0.487511 0.505811 0 0 0
7 1 0.808997 0.656481 0.62262 0 0 0
8 1 0.895306 0.531948 0.663037 0 0 0
9 3 0.763134 0.373544 0.565933 0 0 0
10 3 0.68494 0.413209 0.659387 0 0 0
11 1 0.729808 0.30987 0.497917 0 0 0
12 1 0.818559 0.312039 0.610912 0 0 0
13 4 0.641236 0.291379 0.716235 0 0 0
14 1 0.627215 0.475182 0.620139 0 0 0
15 1 0.720854 0.475108 0.727298 0 0 0
16 3 0.773644 0.53348 0.388635 0 0 0
17 3 0.682909 0.628974 0.393693 0 0 0
18 1 0.753792 0.445759 0.335378 0 0 0
19 1 0.832899 0.58314 0.3395 0 0 0
20 4 0.665123 0.698717 0.277266 0 0 0
21 1 0.696645 0.70291 0.463417 0 0 0
22 1 0.617029 0.573006 0.419738 0 0 0
23 3 0.57885 0.20764 0.618042 0 0 0
25 1 0.536369 0.127689 0.659443 0 0 0
26 1 0.629897 0.145601 0.567075 0 0 0
28 1 0.556508 0.314912 0.445753 0 0 0
38 3 0.628078 0.311753 0.854372 0 0 0
39 3 0.548978 0.416022 0.9115 0 0 0
40 1 0.612694 0.214985 0.896199 0 0 0
41 1 0.696038 0.3483 0.896078 0 0 0
43 1 0.546441 0.51204 0.861907 0 0 0
44 1 0.546634 0.43932 1.00541 0 0 0
64 3 0.644836 0.846304 0.279015 0 0 0
65 3 0.539758 0.889639 0.318712 0 0 0
66 1 0.698736 0.894722 0.337631 0 0 0
67 1 0.658195 0.887569 0.190166 0 0 0
68 4 0.513959 0.841688 0.438352 0 0 0
70 1 0.536391 0.999044 0.319997 0 0 0
71 2 0.505051 0.740134 0.432642 0 0 0
73 3 0.632907 0.618576 0.171102 0 0 0
74 3 0.527293 0.559044 0.178577 0 0 0
75 1 0.637741 0.680322 0.0907859 0 0 0
76 1 0.685101 0.536291 0.158039 0 0 0
77 4 0.506367 0.475427 0.0739251 0 0 0
79 1 0.519902 0.496805 0.257832 0 0 0
80 2 0.508481 0.53685 0.000954561 0 0 0
85 1 0.486645 0.381698 0.721412 0 0 0
ITEM: TIMESTEP
50
ITEM: NUMBER OF ATOMS
90
ITEM: BOX BOUNDS ss ss ss
-6.53378 6.96896
-4.26488 5.70681
-5.59619 5.61643
ITEM: ATOMS id type xs ys zs ix iy iz
24 3 0.513145 0.278415 0.518624 0 0 0
27 4 0.426505 0.201337 0.474159 0 0 0
29 1 0.483807 0.37507 0.544639 0 0 0
30 2 0.377576 0.185852 0.542109 0 0 0
31 3 0.369094 0.257038 0.368974 0 0 0
32 3 0.289002 0.368414 0.387957 0 0 0
33 1 0.422391 0.292768 0.303018 0 0 0
34 1 0.331347 0.172129 0.327857 0 0 0
35 4 0.192413 0.315234 0.438997 0 0 0
36 1 0.274419 0.414166 0.300942 0 0 0
37 1 0.319476 0.449102 0.442951 0 0 0
42 4 0.458212 0.36714 0.912424 0 0 0
45 2 0.446425 0.280044 0.958551 0 0 0
46 3 0.0967541 0.356329 0.384128 0 0 0
47 3 0.0716408 0.252236 0.287827 0 0 0
48 1 0.100299 0.458194 0.348439 0 0 0
49 1 0.0352463 0.354901 0.4481 0 0 0
50 4 0.140683 0.263 0.18783 0 0 0
51 1 -0.00368318 0.268338 0.256079 0 0 0
52 1 0.0767629 0.151363 0.325704 0 0 0
53 2 0.133322 0.357947 0.154659 0 0 0
54 2 0.116936 0.197921 0.123848 0 0 0
55 3 0.186473 0.312232 0.569927 0 0 0
56 3 0.131929 0.191907 0.62798 0 0 0
57 1 0.262281 0.297376 0.593613 0 0 0
58 1 0.159779 0.408535 0.605377 0 0 0
59 4 0.1933 0.0727049 0.609339 0 0 0
60 1 0.0579026 0.178215 0.592385 0 0 0
61 1 0.123284 0.204544 0.724001 0 0 0
62 2 0.192735 0.0545358 0.519825 0 0 0
63 2 0.160544 -0.00578654 0.651904 0 0 0
69 1 0.484486 0.854558 0.255359 0 0 0
72 2 0.445843 0.880537 0.458412 0 0 0
78 1 0.471949 0.638237 0.182553 0 0 0
81 2 0.434947 0.442495 0.0821532 0 0 0
82 3 0.430086 0.346883 0.788875 0 0 0
83 3 0.335666 0.421707 0.770516 0 0 0
84 1 0.428556 0.238576 0.770183 0 0 0
86 4 0.267461 0.31735 0.807363 0 0 0
87 1 0.332115 0.455946 0.677786 0 0 0
88 1 0.329721 0.509996 0.826491 0 0 0
89 2 0.28557 0.236323 0.753651 0 0 0
90 2 0.200551 0.349324 0.779724 0 0 0
1 3 0.950264 0.666559 0.528551 0 0 0
2 3 0.864934 0.587746 0.58634 0 0 0
3 1 0.92139 0.738078 0.463693 0 0 0
4 1 1.00097 0.597424 0.484196 0 0 0
5 1 0.990695 0.721806 0.596979 0 0 0
6 4 0.816993 0.488635 0.504664 0 0 0
7 1 0.810038 0.657986 0.621325 0 0 0
8 1 0.896584 0.534091 0.662599 0 0 0
9 3 0.766298 0.374695 0.564389 0 0 0
10 3 0.686762 0.416389 0.657718 0 0 0
11 1 0.733896 0.310281 0.496694 0 0 0
12 1 0.821865 0.313868 0.610143 0 0 0
13 4 0.638352 0.297207 0.710743 0 0 0
14 1 0.63029 0.479408 0.616849 0 0 0
15 1 0.722539 0.477066 0.725658 0 0 0
16 3 0.77465 0.534946 0.387826 0 0 0
17 3 0.683375 0.629106 0.393865 0 0 0
18 1 0.754885 0.447049 0.334745 0 0 0
19 1 0.833254 0.585211 0.338226 0 0 0
20 4 0.664798 0.698894 0.277492 0 0 0
21 1 0.696784 0.703103 0.463626 0 0 0
22 1 0.617826 0.57241 0.419941 0 0 0
23 3 0.580304 0.209753 0.622712 0 0 0
25 1 0.537706 0.132193 0.667525 0 0 0
26 1 0.634569 0.149817 0.573562 0 0 0
28 1 0.56148 0.30052 0.443485 0 0 0
38 3 0.631657 0.304024 0.850878 0 0 0
39 3 0.562011 0.408253 0.913608 0 0 0
40 1 0.615017 0.205169 0.886581 0 0 0
41 1 0.704575 0.330857 0.884957 0 0 0
43 1 0.566023 0.507706 0.871716 0 0 0
44 1 0.577961 0.42336 1.00847 0 0 0
64 3 0.644855 0.846454 0.279228 0 0 0
65 3 0.539745 0.889828 0.318744 0 0 0
66 1 0.698737 0.894782 0.33792 0 0 0
67 1 0.658345 0.887676 0.190375 0 0 0
68 4 0.513895 0.841709 0.438312 0 0 0
70 1 0.536373 0.999218 0.320065 0 0 0
71 2 0.505262 0.740111 0.432557 0 0 0
73 3 0.632749 0.618762 0.1713 0 0 0
74 3 0.527236 0.558921 0.178833 0 0 0
75 1 0.637389 0.680669 0.0910358 0 0 0
76 1 0.68507 0.536684 0.158032 0 0 0
77 4 0.506342 0.475399 0.0741136 0 0 0
79 1 0.520023 0.496579 0.258069 0 0 0
80 2 0.508443 0.53688 0.00117465 0 0 0
85 1 0.478852 0.397122 0.727844 0 0 0
ITEM: TIMESTEP
75
ITEM: NUMBER OF ATOMS
90
ITEM: BOX BOUNDS ss ss ss
-6.60525 7.01381
-4.38509 5.71069
-5.5902 5.71776
ITEM: ATOMS id type xs ys zs ix iy iz
24 3 0.516086 0.286294 0.514677 0 0 0
27 4 0.42862 0.210539 0.471349 0 0 0
29 1 0.488948 0.383351 0.539566 0 0 0
30 2 0.381005 0.196501 0.539777 0 0 0
31 3 0.372845 0.263547 0.366906 0 0 0
32 3 0.292396 0.372972 0.384491 0 0 0
33 1 0.425366 0.299291 0.30127 0 0 0
34 1 0.335929 0.179019 0.326295 0 0 0
35 4 0.19696 0.319159 0.432921 0 0 0
36 1 0.278959 0.41773 0.297921 0 0 0
37 1 0.321264 0.452703 0.439993 0 0 0
42 4 0.465764 0.377749 0.906875 0 0 0
45 2 0.455569 0.288406 0.947996 0 0 0
46 3 0.102577 0.362611 0.376928 0 0 0
47 3 0.0752639 0.260925 0.281043 0 0 0
48 1 0.10778 0.462574 0.340241 0 0 0
49 1 0.0415659 0.364648 0.440139 0 0 0
50 4 0.143665 0.269977 0.181592 0 0 0
51 1 0.000757346 0.279052 0.249437 0 0 0
52 1 0.0785116 0.161014 0.318128 0 0 0
53 2 0.137247 0.36379 0.148456 0 0 0
54 2 0.119471 0.206109 0.118092 0 0 0
55 3 0.191717 0.313803 0.563326 0 0 0
56 3 0.133943 0.196171 0.616519 0 0 0
57 1 0.266352 0.299236 0.592612 0 0 0
58 1 0.164227 0.408218 0.598089 0 0 0
59 4 0.193402 0.0764183 0.601856 0 0 0
60 1 0.0622106 0.18395 0.575575 0 0 0
61 1 0.121891 0.21091 0.710951 0 0 0
62 2 0.195251 0.0567937 0.513329 0 0 0
63 2 0.158215 0.000361109 0.643218 0 0 0
69 1 0.485666 0.856175 0.252608 0 0 0
72 2 0.447055 0.881284 0.453821 0 0 0
78 1 0.472979 0.642019 0.181014 0 0 0
81 2 0.436457 0.448876 0.0811501 0 0 0
82 3 0.427999 0.367023 0.786176 0 0 0
83 3 0.330134 0.43601 0.775614 0 0 0
84 1 0.42384 0.262083 0.762412 0 0 0
86 4 0.258844 0.336702 0.813008 0 0 0
87 1 0.320971 0.46879 0.684175 0 0 0
88 1 0.326638 0.523609 0.831069 0 0 0
89 2 0.276581 0.252505 0.766069 0 0 0
90 2 0.193142 0.367336 0.780592 0 0 0
1 3 0.94899 0.672176 0.522678 0 0 0
2 3 0.8643 0.594062 0.579756 0 0 0
3 1 0.920457 0.742699 0.45824 0 0 0
4 1 0.999502 0.604011 0.478991 0 0 0
5 1 0.98881 0.726909 0.590687 0 0 0
6 4 0.817199 0.495627 0.498701 0 0 0
7 1 0.809658 0.663434 0.613916 0 0 0
8 1 0.895554 0.541663 0.655681 0 0 0
9 3 0.766629 0.383299 0.558849 0 0 0
10 3 0.686939 0.425754 0.649006 0 0 0
11 1 0.735222 0.318162 0.491982 0 0 0
12 1 0.821719 0.324282 0.605314 0 0 0
13 4 0.635271 0.310621 0.702112 0 0 0
14 1 0.63292 0.490075 0.60785 0 0 0
15 1 0.722163 0.484434 0.71826 0 0 0
16 3 0.774558 0.541446 0.383442 0 0 0
17 3 0.683372 0.633531 0.389788 0 0 0
18 1 0.755278 0.45465 0.330617 0 0 0
19 1 0.832088 0.592112 0.333976 0 0 0
20 4 0.664301 0.702445 0.274718 0 0 0
21 1 0.696209 0.706466 0.459234 0 0 0
22 1 0.618769 0.576637 0.415413 0 0 0
23 3 0.579161 0.21957 0.616814 0 0 0
25 1 0.535027 0.148718 0.66618 0 0 0
26 1 0.634052 0.157495 0.573435 0 0 0
28 1 0.564262 0.303122 0.438954 0 0 0
38 3 0.634525 0.304817 0.836818 0 0 0
39 3 0.570884 0.409667 0.90537 0 0 0
40 1 0.61417 0.206381 0.868094 0 0 0
41 1 0.709364 0.322299 0.86839 0 0 0
43 1 0.579666 0.5087 0.867171 0 0 0
44 1 0.592576 0.416987 0.99798 0 0 0
64 3 0.644615 0.848253 0.276512 0 0 0
65 3 0.540378 0.890997 0.31557 0 0 0
66 1 0.697997 0.895871 0.334844 0 0 0
67 1 0.658104 0.888979 0.188463 0 0 0
68 4 0.514671 0.843297 0.434051 0 0 0
70 1 0.536993 0.999053 0.316959 0 0 0
71 2 0.506421 0.742902 0.428292 0 0 0
73 3 0.632419 0.623318 0.169431 0 0 0
74 3 0.527928 0.563852 0.177123 0 0 0
75 1 0.636773 0.684557 0.0899155 0 0 0
76 1 0.684416 0.542416 0.156112 0 0 0
77 4 0.507226 0.481444 0.0732115 0 0 0
79 1 0.520977 0.502118 0.255625 0 0 0
80 2 0.509293 0.542233 0.000931439 0 0 0
85 1 0.4745 0.419215 0.724169 0 0 0
ITEM: TIMESTEP
100
ITEM: NUMBER OF ATOMS
90
ITEM: BOX BOUNDS ss ss ss
-6.60525 7.01381
-4.38509 5.71069
-5.5902 5.71776
ITEM: ATOMS id type xs ys zs ix iy iz
24 3 0.516231 0.286364 0.513205 0 0 0
27 4 0.430065 0.209099 0.473449 0 0 0
29 1 0.490252 0.383632 0.539866 0 0 0
30 2 0.382053 0.198408 0.541984 0 0 0
31 3 0.374541 0.26002 0.36758 0 0 0
32 3 0.294687 0.36847 0.385472 0 0 0
33 1 0.427587 0.295474 0.302409 0 0 0
34 1 0.338585 0.174458 0.3278 0 0 0
35 4 0.199014 0.313878 0.432255 0 0 0
36 1 0.281894 0.413488 0.298643 0 0 0
37 1 0.322424 0.448162 0.441801 0 0 0
42 4 0.47039 0.380769 0.907603 0 0 0
45 2 0.457951 0.290292 0.945486 0 0 0
46 3 0.105992 0.360208 0.374286 0 0 0
47 3 0.0755621 0.261102 0.277159 0 0 0
48 1 0.113468 0.459882 0.337347 0 0 0
49 1 0.0446894 0.365446 0.43689 0 0 0
50 4 0.143146 0.267711 0.176657 0 0 0
51 1 0.00146647 0.283451 0.246163 0 0 0
52 1 0.0759803 0.160593 0.313011 0 0 0
53 2 0.137649 0.361384 0.142955 0 0 0
54 2 0.11707 0.204321 0.113711 0 0 0
55 3 0.193119 0.308229 0.56338 0 0 0
56 3 0.133097 0.190418 0.612402 0 0 0
57 1 0.26678 0.296526 0.598311 0 0 0
58 1 0.163139 0.401545 0.59704 0 0 0
59 4 0.190159 0.0682009 0.59994 0 0 0
60 1 0.0628061 0.180009 0.567356 0 0 0
61 1 0.118319 0.205714 0.706237 0 0 0
62 2 0.193975 0.0478521 0.511581 0 0 0
63 2 0.151042 -0.00601323 0.639126 0 0 0
69 1 0.485817 0.856422 0.252479 0 0 0
72 2 0.446782 0.880665 0.453501 0 0 0
78 1 0.472767 0.641647 0.181919 0 0 0
81 2 0.436396 0.448787 0.0816433 0 0 0
82 3 0.424198 0.380676 0.789927 0 0 0
83 3 0.322816 0.445202 0.789838 0 0 0
84 1 0.418454 0.278347 0.75959 0 0 0
86 4 0.24993 0.34745 0.827688 0 0 0
87 1 0.307117 0.479434 0.700232 0 0 0
88 1 0.321292 0.531347 0.847502 0 0 0
89 2 0.266786 0.26122 0.784107 0 0 0
90 2 0.184436 0.378131 0.793425 0 0 0
1 3 0.950963 0.674433 0.521313 0 0 0
2 3 0.866229 0.596082 0.578183 0 0 0
3 1 0.922644 0.744795 0.456514 0 0 0
4 1 1.00196 0.606581 0.477987 0 0 0
5 1 0.990479 0.729681 0.58929 0 0 0
6 4 0.819086 0.496633 0.498012 0 0 0
7 1 0.811454 0.665479 0.611972 0 0 0
8 1 0.897425 0.544257 0.654551 0 0 0
9 3 0.768262 0.384691 0.558281 0 0 0
10 3 0.686975 0.427805 0.647241 0 0 0
11 1 0.737682 0.318039 0.492267 0 0 0
12 1 0.822909 0.327031 0.606937 0 0 0
13 4 0.630783 0.3147 0.697244 0 0 0
14 1 0.635217 0.494299 0.604273 0 0 0
15 1 0.721799 0.484995 0.71716 0 0 0
16 3 0.776138 0.542881 0.382521 0 0 0
17 3 0.684383 0.633533 0.389273 0 0 0
18 1 0.757699 0.455878 0.329577 0 0 0
19 1 0.833325 0.594535 0.333378 0 0 0
20 4 0.664534 0.702939 0.274406 0 0 0
21 1 0.696388 0.706356 0.459023 0 0 0
22 1 0.620117 0.575699 0.414199 0 0 0
23 3 0.578005 0.220348 0.617101 0 0 0
25 1 0.53029 0.154941 0.667514 0 0 0
26 1 0.632378 0.154728 0.576685 0 0 0
28 1 0.565579 0.301092 0.438531 0 0 0
38 3 0.635821 0.297117 0.831189 0 0 0
39 3 0.577821 0.402302 0.903257 0 0 0
40 1 0.611076 0.198516 0.85646 0 0 0
41 1 0.712626 0.304655 0.857922 0 0 0
43 1 0.591509 0.502149 0.869482 0 0 0
44 1 0.602829 0.401814 0.995299 0 0 0
64 3 0.644761 0.848583 0.276686 0 0 0
65 3 0.540402 0.891202 0.315609 0 0 0
66 1 0.697992 0.89619 0.335223 0 0 0
67 1 0.658318 0.889629 0.188728 0 0 0
68 4 0.514612 0.843187 0.433962 0 0 0
70 1 0.536939 0.999228 0.317179 0 0 0
71 2 0.506794 0.742745 0.428121 0 0 0
73 3 0.632267 0.623734 0.169436 0 0 0
74 3 0.527913 0.563762 0.1776 0 0 0
75 1 0.636117 0.685142 0.0899321 0 0 0
76 1 0.684369 0.543072 0.155718 0 0 0
77 4 0.507132 0.481474 0.0736487 0 0 0
79 1 0.521338 0.501754 0.256 0 0 0
80 2 0.509102 0.542348 0.00142061 0 0 0
85 1 0.468011 0.43754 0.727638 0 0 0
ITEM: TIMESTEP
125
ITEM: NUMBER OF ATOMS
90
ITEM: BOX BOUNDS ss ss ss
-6.60525 7.01381
-4.38509 5.71069
-5.5902 5.71776
ITEM: ATOMS id type xs ys zs ix iy iz
24 3 0.515997 0.287228 0.512295 0 0 0
27 4 0.430744 0.206697 0.472818 0 0 0
29 1 0.488396 0.383518 0.539999 0 0 0
30 2 0.382789 0.198367 0.541754 0 0 0
31 3 0.376124 0.255061 0.36713 0 0 0
32 3 0.296663 0.364168 0.385997 0 0 0
33 1 0.428819 0.290001 0.301259 0 0 0
34 1 0.33974 0.169179 0.328277 0 0 0
35 4 0.201174 0.309721 0.432347 0 0 0
36 1 0.284757 0.409958 0.299509 0 0 0
37 1 0.32491 0.442734 0.443221 0 0 0
42 4 0.472323 0.382765 0.90751 0 0 0
45 2 0.456543 0.292034 0.943025 0 0 0
46 3 0.109121 0.358198 0.372669 0 0 0
47 3 0.0768624 0.261417 0.27437 0 0 0
48 1 0.118517 0.457757 0.336245 0 0 0
49 1 0.0476561 0.365187 0.434711 0 0 0
50 4 0.143702 0.265848 0.172985 0 0 0
51 1 0.00323241 0.287336 0.243784 0 0 0
52 1 0.0748386 0.160514 0.309131 0 0 0
53 2 0.139104 0.35934 0.138678 0 0 0
54 2 0.115911 0.202884 0.110657 0 0 0
55 3 0.19399 0.304467 0.56395 0 0 0
56 3 0.133068 0.186191 0.610573 0 0 0
57 1 0.266931 0.295112 0.602307 0 0 0
58 1 0.162333 0.397061 0.596774 0 0 0
59 4 0.188148 0.062301 0.59781 0 0 0
60 1 0.0632291 0.177516 0.564059 0 0 0
61 1 0.117362 0.200654 0.704329 0 0 0
62 2 0.193173 0.042954 0.509336 0 0 0
63 2 0.146418 -0.0110573 0.634513 0 0 0
69 1 0.486108 0.856521 0.25225 0 0 0
72 2 0.446646 0.879691 0.453102 0 0 0
78 1 0.472679 0.641227 0.183069 0 0 0
81 2 0.436274 0.448751 0.0824124 0 0 0
82 3 0.421519 0.392516 0.792404 0 0 0
83 3 0.318369 0.453109 0.801534 0 0 0
84 1 0.415531 0.29336 0.754977 0 0 0
86 4 0.24654 0.354338 0.840955 0 0 0
87 1 0.297098 0.489271 0.714234 0 0 0
88 1 0.318313 0.537283 0.861771 0 0 0
89 2 0.261652 0.268622 0.79609 0 0 0
90 2 0.179814 0.385794 0.810439 0 0 0
1 3 0.952505 0.676056 0.519924 0 0 0
2 3 0.867697 0.597442 0.577175 0 0 0
3 1 0.924266 0.746042 0.454802 0 0 0
4 1 1.00381 0.608331 0.477037 0 0 0
5 1 0.991793 0.731902 0.587727 0 0 0
6 4 0.820258 0.497723 0.497354 0 0 0
7 1 0.813001 0.667064 0.610704 0 0 0
8 1 0.899006 0.546128 0.653561 0 0 0
9 3 0.768868 0.385684 0.55848 0 0 0
10 3 0.686467 0.428688 0.64505 0 0 0
11 1 0.739456 0.318048 0.492221 0 0 0
12 1 0.823391 0.329115 0.608229 0 0 0
13 4 0.627183 0.31738 0.695217 0 0 0
14 1 0.636165 0.496425 0.601628 0 0 0
15 1 0.720628 0.485111 0.716488 0 0 0
16 3 0.777692 0.543631 0.382003 0 0 0
17 3 0.685242 0.633654 0.388373 0 0 0
18 1 0.75992 0.456763 0.32858 0 0 0
19 1 0.834615 0.596296 0.333062 0 0 0
20 4 0.665121 0.703211 0.274014 0 0 0
21 1 0.69663 0.70605 0.458642 0 0 0
22 1 0.62137 0.5748 0.412768 0 0 0
23 3 0.57595 0.221147 0.614328 0 0 0
25 1 0.526779 0.158327 0.665896 0 0 0
26 1 0.630707 0.154356 0.576588 0 0 0
28 1 0.565313 0.303144 0.437439 0 0 0
38 3 0.635092 0.291554 0.825428 0 0 0
39 3 0.580606 0.396525 0.902438 0 0 0
40 1 0.607393 0.193384 0.848504 0 0 0
41 1 0.712773 0.292867 0.850128 0 0 0
43 1 0.598467 0.496531 0.872333 0 0 0
44 1 0.606886 0.388822 0.993369 0 0 0
64 3 0.645014 0.848978 0.276713 0 0 0
65 3 0.540598 0.891153 0.315582 0 0 0
66 1 0.698119 0.896425 0.335534 0 0 0
67 1 0.658659 0.89033 0.188948 0 0 0
68 4 0.514678 0.842754 0.43377 0 0 0
70 1 0.536977 0.999207 0.317437 0 0 0
71 2 0.507298 0.742261 0.427774 0 0 0
73 3 0.632187 0.624222 0.16914 0 0 0
74 3 0.528041 0.563654 0.17812 0 0 0
75 1 0.635395 0.685816 0.0897825 0 0 0
76 1 0.68444 0.543802 0.154913 0 0 0
77 4 0.506948 0.481575 0.0741125 0 0 0
79 1 0.521967 0.50126 0.256332 0 0 0
80 2 0.508633 0.542605 0.00198952 0 0 0
85 1 0.463251 0.45516 0.731999 0 0 0
ITEM: TIMESTEP
150
ITEM: NUMBER OF ATOMS
90
ITEM: BOX BOUNDS ss ss ss
-6.60525 7.01381
-4.38509 5.71069
-5.5902 5.71776
ITEM: ATOMS id type xs ys zs ix iy iz
24 3 0.515369 0.287713 0.511556 0 0 0
27 4 0.431146 0.205639 0.472208 0 0 0
29 1 0.48705 0.383313 0.540189 0 0 0
30 2 0.383028 0.19715 0.540964 0 0 0
31 3 0.376278 0.253263 0.366453 0 0 0
32 3 0.297377 0.362641 0.385948 0 0 0
33 1 0.428891 0.287625 0.300233 0 0 0
34 1 0.339656 0.167197 0.328281 0 0 0
35 4 0.201767 0.308555 0.432357 0 0 0
36 1 0.285583 0.408902 0.299614 0 0 0
37 1 0.325883 0.440783 0.443416 0 0 0
42 4 0.472516 0.383197 0.907477 0 0 0
45 2 0.455651 0.292286 0.941802 0 0 0
46 3 0.110078 0.357575 0.372294 0 0 0
47 3 0.0774398 0.261485 0.273559 0 0 0
48 1 0.119914 0.457175 0.3361 0 0 0
49 1 0.0485183 0.364885 0.434159 0 0 0
50 4 0.144235 0.265309 0.172089 0 0 0
51 1 0.00401534 0.288383 0.242953 0 0 0
52 1 0.0747127 0.160498 0.308033 0 0 0
53 2 0.139985 0.358753 0.137613 0 0 0
54 2 0.116061 0.202487 0.109866 0 0 0
55 3 0.194398 0.303401 0.564099 0 0 0
56 3 0.133255 0.185011 0.610215 0 0 0
57 1 0.267155 0.29451 0.603153 0 0 0
58 1 0.162401 0.395836 0.596775 0 0 0
59 4 0.187708 0.0606866 0.596783 0 0 0
60 1 0.063361 0.17704 0.563705 0 0 0
61 1 0.117671 0.199014 0.704065 0 0 0
62 2 0.192963 0.0420676 0.508201 0 0 0
63 2 0.145325 -0.0125759 0.632602 0 0 0
69 1 0.486278 0.85652 0.252121 0 0 0
72 2 0.446645 0.879195 0.452921 0 0 0
78 1 0.472692 0.641008 0.183605 0 0 0
81 2 0.436213 0.448734 0.0827626 0 0 0
82 3 0.42092 0.3967 0.793116 0 0 0
83 3 0.317308 0.455692 0.805259 0 0 0
84 1 0.415042 0.298944 0.752875 0 0 0
86 4 0.246526 0.355998 0.845632 0 0 0
87 1 0.294141 0.492305 0.718814 0 0 0
88 1 0.317705 0.539237 0.866251 0 0 0
89 2 0.26059 0.271091 0.799165 0 0 0
90 2 0.179002 0.387891 0.818087 0 0 0
1 3 0.952847 0.676345 0.519559 0 0 0
2 3 0.868111 0.597862 0.576841 0 0 0
3 1 0.924662 0.746265 0.454266 0 0 0
4 1 1.00427 0.608671 0.476734 0 0 0
5 1 0.992149 0.732443 0.587212 0 0 0
6 4 0.82045 0.497763 0.497459 0 0 0
7 1 0.813428 0.667451 0.610435 0 0 0
8 1 0.899436 0.546512 0.653313 0 0 0
9 3 0.769034 0.386117 0.558287 0 0 0
10 3 0.685911 0.428871 0.644781 0 0 0
11 1 0.739797 0.318124 0.492242 0 0 0
12 1 0.823289 0.329687 0.608696 0 0 0
13 4 0.625948 0.318242 0.694069 0 0 0
14 1 0.636146 0.496966 0.600768 0 0 0
15 1 0.719968 0.485242 0.716217 0 0 0
16 3 0.778037 0.543979 0.381665 0 0 0
17 3 0.68562 0.633511 0.388158 0 0 0
18 1 0.760575 0.456936 0.328288 0 0 0
19 1 0.835028 0.596655 0.333017 0 0 0
20 4 0.665357 0.703425 0.273696 0 0 0
21 1 0.696738 0.705951 0.458448 0 0 0
22 1 0.62175 0.574589 0.412244 0 0 0
23 3 0.575347 0.221533 0.613645 0 0 0
25 1 0.525824 0.159073 0.664892 0 0 0
26 1 0.630147 0.154773 0.575902 0 0 0
28 1 0.56481 0.304751 0.437098 0 0 0
38 3 0.634502 0.290099 0.824242 0 0 0
39 3 0.581071 0.394676 0.902259 0 0 0
40 1 0.606123 0.192122 0.84625 0 0 0
41 1 0.712354 0.289899 0.84793 0 0 0
43 1 0.60011 0.494822 0.873767 0 0 0
44 1 0.60733 0.3846 0.993107 0 0 0
64 3 0.645203 0.848979 0.276703 0 0 0
65 3 0.54069 0.891113 0.315547 0 0 0
66 1 0.698214 0.896487 0.335604 0 0 0
67 1 0.658834 0.890582 0.188973 0 0 0
68 4 0.514759 0.84246 0.433648 0 0 0
70 1 0.537038 0.999119 0.317546 0 0 0
71 2 0.507534 0.741962 0.427553 0 0 0
73 3 0.632211 0.624356 0.169039 0 0 0
74 3 0.528127 0.56357 0.1783 0 0 0
75 1 0.635116 0.686087 0.089673 0 0 0
76 1 0.6845 0.544088 0.154513 0 0 0
77 4 0.506851 0.481645 0.074272 0 0 0
79 1 0.522304 0.500963 0.256425 0 0 0
80 2 0.50834 0.54279 0.00221872 0 0 0
85 1 0.462031 0.46172 0.734025 0 0 0
ITEM: TIMESTEP
175
ITEM: NUMBER OF ATOMS
90
ITEM: BOX BOUNDS ss ss ss
-6.60525 7.01381
-4.38509 5.71069
-5.5902 5.71776
ITEM: ATOMS id type xs ys zs ix iy iz
24 3 0.514762 0.288119 0.511108 0 0 0
27 4 0.431425 0.204574 0.471306 0 0 0
29 1 0.485519 0.38303 0.540416 0 0 0
30 2 0.383263 0.195438 0.539991 0 0 0
31 3 0.3764 0.251522 0.365754 0 0 0
32 3 0.297899 0.361338 0.385729 0 0 0
33 1 0.428817 0.285373 0.299079 0 0 0
34 1 0.339401 0.165396 0.328178 0 0 0
35 4 0.202308 0.307602 0.432323 0 0 0
36 1 0.286231 0.407945 0.299555 0 0 0
37 1 0.326754 0.439084 0.443358 0 0 0
42 4 0.472646 0.383499 0.907455 0 0 0
45 2 0.454804 0.292294 0.940438 0 0 0
46 3 0.110823 0.357042 0.371997 0 0 0
47 3 0.0780074 0.261514 0.272885 0 0 0
48 1 0.120988 0.456693 0.336066 0 0 0
49 1 0.0492177 0.364475 0.433744 0 0 0
50 4 0.144876 0.264856 0.17145 0 0 0
51 1 0.00477393 0.289194 0.242151 0 0 0
52 1 0.0746812 0.160464 0.307114 0 0 0
53 2 0.140972 0.358274 0.136858 0 0 0
54 2 0.116477 0.202171 0.109246 0 0 0
55 3 0.194837 0.30251 0.564163 0 0 0
56 3 0.133555 0.18406 0.609947 0 0 0
57 1 0.267503 0.293894 0.603646 0 0 0
58 1 0.162663 0.394846 0.59678 0 0 0
59 4 0.187419 0.0593726 0.595657 0 0 0
60 1 0.0635056 0.176788 0.563658 0 0 0
61 1 0.118271 0.197566 0.703935 0 0 0
62 2 0.192768 0.0415598 0.506949 0 0 0
63 2 0.144525 -0.013851 0.630687 0 0 0
69 1 0.486456 0.856517 0.251964 0 0 0
72 2 0.446669 0.878657 0.452726 0 0 0
78 1 0.472723 0.640758 0.184183 0 0 0
81 2 0.436156 0.448706 0.0831122 0 0 0
82 3 0.420485 0.400617 0.793783 0 0 0
83 3 0.316527 0.457978 0.808564 0 0 0
84 1 0.414807 0.304332 0.75082 0 0 0
86 4 0.24695 0.357227 0.849942 0 0 0
87 1 0.291614 0.494849 0.722914 0 0 0
88 1 0.317253 0.541016 0.87016 0 0 0
89 2 0.259788 0.273351 0.801567 0 0 0
90 2 0.178631 0.389571 0.825855 0 0 0
1 3 0.953149 0.676567 0.519204 0 0 0
2 3 0.868338 0.597981 0.576708 0 0 0
3 1 0.924947 0.746348 0.453868 0 0 0
4 1 1.00457 0.608844 0.4765 0 0 0
5 1 0.992411 0.732774 0.586799 0 0 0
6 4 0.820583 0.498093 0.497274 0 0 0
7 1 0.813751 0.667736 0.610255 0 0 0
8 1 0.899737 0.546787 0.653095 0 0 0
9 3 0.768782 0.386308 0.558527 0 0 0
10 3 0.685539 0.429274 0.64416 0 0 0
11 1 0.739965 0.318235 0.492249 0 0 0
12 1 0.823034 0.330181 0.609111 0 0 0
13 4 0.624715 0.318818 0.693582 0 0 0
14 1 0.635958 0.497403 0.60005 0 0 0
15 1 0.719207 0.485469 0.716033 0 0 0
16 3 0.778436 0.543945 0.381621 0 0 0
17 3 0.685823 0.633631 0.387776 0 0 0
18 1 0.761059 0.457059 0.328042 0 0 0
19 1 0.835388 0.596887 0.332958 0 0 0
20 4 0.665658 0.703415 0.273543 0 0 0
21 1 0.696872 0.705858 0.458263 0 0 0
22 1 0.622055 0.574444 0.41179 0 0 0
23 3 0.574695 0.222041 0.612687 0 0 0
25 1 0.524998 0.159597 0.663999 0 0 0
26 1 0.62963 0.155341 0.575175 0 0 0
28 1 0.564184 0.306531 0.436805 0 0 0
38 3 0.633942 0.289057 0.822861 0 0 0
39 3 0.581289 0.393119 0.902355 0 0 0
40 1 0.60501 0.191073 0.844415 0 0 0
41 1 0.711905 0.287588 0.846104 0 0 0
43 1 0.601415 0.493356 0.875213 0 0 0
44 1 0.60748 0.380864 0.992939 0 0 0
64 3 0.645343 0.849124 0.276633 0 0 0
65 3 0.540846 0.890996 0.315485 0 0 0
66 1 0.698336 0.896519 0.335638 0 0 0
67 1 0.659018 0.890784 0.188988 0 0 0
68 4 0.514847 0.842135 0.4335 0 0 0
70 1 0.53712 0.999035 0.317652 0 0 0
71 2 0.507778 0.74162 0.427283 0 0 0
73 3 0.63222 0.624513 0.168852 0 0 0
74 3 0.528241 0.563452 0.178495 0 0 0
75 1 0.634849 0.686306 0.0895794 0 0 0
76 1 0.684588 0.544341 0.154109 0 0 0
77 4 0.506745 0.48173 0.0743928 0 0 0
79 1 0.522679 0.500602 0.25648 0 0 0
80 2 0.507997 0.543031 0.00244562 0 0 0
85 1 0.461098 0.467964 0.736191 0 0 0
ITEM: TIMESTEP
200
ITEM: NUMBER OF ATOMS
90
ITEM: BOX BOUNDS ss ss ss
-6.60525 7.01381
-4.38509 5.71069
-5.5902 5.71776
ITEM: ATOMS id type xs ys zs ix iy iz
24 3 0.514285 0.288404 0.510757 0 0 0
27 4 0.431617 0.203889 0.470701 0 0 0
29 1 0.484472 0.382793 0.540586 0 0 0
30 2 0.383408 0.194134 0.539272 0 0 0
31 3 0.376407 0.250509 0.36523 0 0 0
32 3 0.298205 0.360561 0.385506 0 0 0
33 1 0.428727 0.284005 0.298302 0 0 0
34 1 0.339195 0.164327 0.328049 0 0 0
35 4 0.202601 0.307074 0.432267 0 0 0
36 1 0.286555 0.407355 0.29941 0 0 0
37 1 0.327249 0.438122 0.443179 0 0 0
42 4 0.472682 0.383629 0.907466 0 0 0
45 2 0.454309 0.2922 0.939489 0 0 0
46 3 0.111231 0.356717 0.371848 0 0 0
47 3 0.0783584 0.261511 0.272493 0 0 0
48 1 0.121533 0.456424 0.336092 0 0 0
49 1 0.0495929 0.364148 0.433537 0 0 0
50 4 0.145336 0.264596 0.171146 0 0 0
51 1 0.00525239 0.289616 0.241635 0 0 0
52 1 0.0746926 0.160427 0.306587 0 0 0
53 2 0.141661 0.358009 0.136506 0 0 0
54 2 0.116859 0.202002 0.108913 0 0 0
55 3 0.195157 0.302013 0.564164 0 0 0
56 3 0.133805 0.183539 0.609806 0 0 0
57 1 0.26779 0.293499 0.603806 0 0 0
58 1 0.162922 0.394307 0.596777 0 0 0
59 4 0.1873 0.0586495 0.594868 0 0 0
60 1 0.063616 0.176725 0.563761 0 0 0
61 1 0.118804 0.196708 0.703902 0 0 0
62 2 0.192637 0.0413901 0.50607 0 0 0
63 2 0.144133 -0.0145694 0.629439 0 0 0
69 1 0.486582 0.856516 0.251849 0 0 0
72 2 0.44669 0.878293 0.452586 0 0 0
78 1 0.472756 0.640573 0.184586 0 0 0
81 2 0.436122 0.448681 0.0833363 0 0 0
82 3 0.420297 0.403049 0.794221 0 0 0