ITEM: TIMESTEP
0
ITEM: NUMBER OF ATOMS
74
ITEM: BOX BOUNDS ss ss ss
-6.37296 6.72551
-4.16387 4.63917
-4.19926 5.16317
ITEM: ATOMS id type xs ys zs ix iy iz
28 4 0.426977 0.241194 0.424384 0 0 0
30 1 0.459128 0.428695 0.558505 0 0 0
31 2 0.372764 0.208286 0.496584 0 0 0
32 3 0.374766 0.306655 0.298133 0 0 0
33 3 0.29402 0.430823 0.330517 0 0 0
34 1 0.431928 0.352407 0.224601 0 0 0
35 1 0.337109 0.213054 0.242698 0 0 0
36 4 0.200228 0.364477 0.398624 0 0 0
37 1 0.275681 0.484932 0.228636 0 0 0
38 1 0.327158 0.520429 0.396575 0 0 0
43 4 0.422498 0.380006 0.864138 0 0 0
46 2 0.418119 0.349664 0.759244 0 0 0
47 2 0.423562 0.28163 0.92219 0 0 0
48 3 0.101071 0.402214 0.326234 0 0 0
49 3 0.0778976 0.293692 0.200239 0 0 0
50 1 0.100687 0.519998 0.289102 0 0 0
51 1 0.0370081 0.391839 0.400363 0 0 0
52 4 0.148755 0.311621 0.0800668 0 0 0
53 1 0.000763448 0.315294 0.160859 0 0 0
54 1 0.0815286 0.176249 0.237389 0 0 0
55 2 0.140192 0.419797 0.0420884 0 0 0
56 2 0.124671 0.239876 0.0010681 0 0 0
57 3 0.198241 0.370072 0.558731 0 0 0
58 3 0.146203 0.229182 0.625528 0 0 0
59 1 0.275447 0.374757 0.60241 0 0 0
60 1 0.159167 0.472996 0.594663 0 0 0
61 4 0.199388 0.0888841 0.58525 0 0 0
62 1 0.0666124 0.220912 0.592056 0 0 0
63 1 0.147783 0.239014 0.741786 0 0 0
64 2 0.190478 0.075817 0.477454 0 0 0
65 2 0.16123 0.00113597 0.632851 0 0 0
70 4 0.464492 0.814408 0.220991 0 0 0
73 2 0.460867 0.740164 0.137488 0 0 0
74 2 0.398779 0.876217 0.216729 0 0 0
1 3 0.949502 0.766583 0.418085 0 0 0
2 3 0.866438 0.684485 0.506098 0 0 0
3 1 0.915297 0.838962 0.336602 0 0 0
4 1 0.999237 0.683529 0.366595 0 0 0
5 1 0.995677 0.838023 0.488096 0 0 0
6 4 0.808042 0.567789 0.42326 0 0 0
7 1 0.814251 0.768281 0.551564 0 0 0
8 1 0.905712 0.62967 0.5954 0 0 0
9 3 0.767329 0.435957 0.50686 0 0 0
10 3 0.693599 0.476713 0.631291 0 0 0
11 1 0.730875 0.356511 0.433739 0 0 0
12 1 0.832214 0.374576 0.552289 0 0 0
13 4 0.639938 0.341566 0.693807 0 0 0
14 1 0.637345 0.559863 0.596655 0 0 0
15 1 0.739537 0.532647 0.713303 0 0 0
16 3 0.749222 0.617581 0.293757 0 0 0
17 3 0.660588 0.730699 0.319669 0 0 0
18 1 0.718463 0.518001 0.23891 0 0 0
19 1 0.802662 0.669126 0.218661 0 0 0
20 4 0.615348 0.779233 0.183788 0 0 0
21 1 0.688098 0.831697 0.374991 0 0 0
22 1 0.600624 0.678087 0.383241 0 0 0
23 2 0.583384 0.685233 0.137799 0 0 0
24 3 0.569757 0.250202 0.600329 0 0 0
25 3 0.5003 0.342443 0.498068 0 0 0
26 1 0.521415 0.176478 0.665507 0 0 0
27 1 0.616958 0.174199 0.536006 0 0 0
29 1 0.547972 0.399367 0.418876 0 0 0
39 3 0.613151 0.351895 0.849032 0 0 0
40 3 0.521164 0.455319 0.886222 0 0 0
41 1 0.599204 0.237762 0.890729 0 0 0
42 1 0.679825 0.393805 0.907276 0 0 0
44 1 0.523502 0.559524 0.823287 0 0 0
45 1 0.525319 0.486509 0.998932 0 0 0
66 3 0.652009 0.824331 0.210992 0 0 0
67 3 0.552856 0.915063 0.202269 0 0 0
68 1 0.655952 0.762111 0.312089 0 0 0
69 1 0.718624 0.899175 0.202926 0 0 0
71 1 0.55178 0.980387 0.101376 0 0 0
72 1 0.550951 0.998864 0.289033 0 0 0
ITEM: TIMESTEP
25
ITEM: NUMBER OF ATOMS
74
ITEM: BOX BOUNDS ss ss ss
-6.37298 6.72555
-4.16389 4.68761
-4.19922 5.16324
ITEM: ATOMS id type xs ys zs ix iy iz
28 4 0.426942 0.239908 0.424387 0 0 0
30 1 0.459114 0.426539 0.558448 0 0 0
31 2 0.372743 0.207191 0.496467 0 0 0
32 3 0.374729 0.304978 0.298121 0 0 0
33 3 0.294036 0.428517 0.330546 0 0 0
34 1 0.431877 0.350451 0.224593 0 0 0
35 1 0.337017 0.211884 0.242738 0 0 0
36 4 0.200275 0.362455 0.39857 0 0 0
37 1 0.275728 0.482341 0.228671 0 0 0
38 1 0.327152 0.51767 0.396604 0 0 0
43 4 0.42246 0.377978 0.864134 0 0 0
46 2 0.418148 0.347686 0.759216 0 0 0
47 2 0.423544 0.280192 0.922234 0 0 0
48 3 0.101102 0.399953 0.326198 0 0 0
49 3 0.0778576 0.291995 0.200262 0 0 0
50 1 0.100742 0.517097 0.289016 0 0 0
51 1 0.0371109 0.389693 0.400467 0 0 0
52 4 0.148683 0.30991 0.08012 0 0 0
53 1 0.000736998 0.313593 0.16088 0 0 0
54 1 0.0815102 0.175189 0.237363 0 0 0
55 2 0.140022 0.417471 0.0422261 0 0 0
56 2 0.12466 0.238558 0.00110483 0 0 0
57 3 0.19821 0.368057 0.558652 0 0 0
58 3 0.146221 0.227916 0.625513 0 0 0
59 1 0.275391 0.372665 0.602402 0 0 0
60 1 0.1591 0.470433 0.594489 0 0 0
61 4 0.199377 0.0884089 0.58526 0 0 0
62 1 0.066669 0.219713 0.592017 0 0 0
63 1 0.147846 0.237715 0.741764 0 0 0
64 2 0.190506 0.0754635 0.477468 0 0 0
65 2 0.161199 0.00111077 0.632776 0 0 0
70 4 0.457461 0.823538 0.217319 0 0 0
73 2 0.458774 0.741517 0.138571 0 0 0
74 2 0.389736 0.876958 0.21343 0 0 0
1 3 0.950428 0.762289 0.418482 0 0 0
2 3 0.870111 0.677337 0.508563 0 0 0
3 1 0.915023 0.834114 0.337346 0 0 0
4 1 0.999915 0.680181 0.366172 0 0 0
5 1 0.996299 0.833899 0.488109 0 0 0
6 4 0.818164 0.552045 0.427149 0 0 0
7 1 0.818959 0.760929 0.557092 0 0 0
8 1 0.908961 0.625425 0.598005 0 0 0
9 3 0.76934 0.428427 0.51051 0 0 0
10 3 0.694451 0.472801 0.632949 0 0 0
11 1 0.731369 0.351314 0.43656 0 0 0
12 1 0.833099 0.36756 0.555682 0 0 0
13 4 0.639987 0.339169 0.694466 0 0 0
14 1 0.637531 0.554755 0.600616 0 0 0
15 1 0.739907 0.529425 0.714331 0 0 0
16 3 0.760748 0.586726 0.297614 0 0 0
17 3 0.669094 0.682226 0.344821 0 0 0
18 1 0.729563 0.491463 0.23861 0 0 0
19 1 0.809319 0.656275 0.224215 0 0 0
20 4 0.642447 0.711037 0.198513 0 0 0
21 1 0.697619 0.772297 0.413549 0 0 0
22 1 0.599268 0.635686 0.395772 0 0 0
23 2 0.582132 0.661137 0.146458 0 0 0
24 3 0.569738 0.248699 0.60048 0 0 0
25 3 0.500181 0.3404 0.49831 0 0 0
26 1 0.521364 0.17537 0.66551 0 0 0
27 1 0.616931 0.173224 0.53602 0 0 0
29 1 0.547766 0.396011 0.418821 0 0 0
39 3 0.613089 0.349763 0.849375 0 0 0
40 3 0.521131 0.452875 0.886264 0 0 0
41 1 0.599045 0.236358 0.890918 0 0 0
42 1 0.679767 0.391496 0.907472 0 0 0
44 1 0.5235 0.556462 0.823232 0 0 0
45 1 0.525274 0.483964 0.998967 0 0 0
66 3 0.643482 0.871351 0.168233 0 0 0
67 3 0.53852 0.939014 0.191493 0 0 0
68 1 0.638759 0.90146 0.269246 0 0 0
69 1 0.721847 0.912348 0.18575 0 0 0
71 1 0.533735 0.990697 0.0890208 0 0 0
72 1 0.524717 1.03254 0.278428 0 0 0
ITEM: TIMESTEP
50
ITEM: NUMBER OF ATOMS
74
ITEM: BOX BOUNDS ss ss ss
-6.37432 6.76606
-4.16417 5.0448
-4.19823 5.16635
ITEM: ATOMS id type xs ys zs ix iy iz
28 4 0.424919 0.229553 0.425037 0 0 0
30 1 0.458561 0.410225 0.557574 0 0 0
31 2 0.370634 0.198737 0.496785 0 0 0
32 3 0.373525 0.292883 0.298393 0 0 0
33 3 0.293235 0.411921 0.330481 0 0 0
34 1 0.430638 0.336502 0.225004 0 0 0
35 1 0.335814 0.20373 0.242666 0 0 0
36 4 0.199764 0.348368 0.398352 0 0 0
37 1 0.275067 0.463684 0.228593 0 0 0
38 1 0.326255 0.497597 0.396561 0 0 0
43 4 0.420948 0.363458 0.863962 0 0 0
46 2 0.417022 0.334157 0.759071 0 0 0
47 2 0.421976 0.26956 0.922148 0 0 0
48 3 0.100912 0.384357 0.326001 0 0 0
49 3 0.0776171 0.280508 0.200222 0 0 0
50 1 0.1006 0.4969 0.288684 0 0 0
51 1 0.037173 0.374644 0.40034 0 0 0
52 4 0.148146 0.297901 0.0800835 0 0 0
53 1 0.00072729 0.301332 0.16093 0 0 0
54 1 0.0812696 0.168212 0.237258 0 0 0
55 2 0.139262 0.401276 0.0422913 0 0 0
56 2 0.124268 0.229271 0.00109167 0 0 0
57 3 0.197656 0.353817 0.558369 0 0 0
58 3 0.145891 0.219099 0.62525 0 0 0
59 1 0.274567 0.358368 0.602184 0 0 0
60 1 0.158586 0.452207 0.594036 0 0 0
61 4 0.198857 0.084993 0.585006 0 0 0
62 1 0.0665879 0.21119 0.591797 0 0 0
63 1 0.147562 0.22855 0.741468 0 0 0
64 2 0.190116 0.0726786 0.477209 0 0 0
65 2 0.160691 0.0010811 0.632338 0 0 0
70 4 0.451663 0.802203 0.212951 0 0 0
73 2 0.456257 0.72294 0.136606 0 0 0
74 2 0.380929 0.847146 0.207209 0 0 0
1 3 0.949094 0.73024 0.420536 0 0 0
2 3 0.872093 0.643913 0.511919 0 0 0
3 1 0.910667 0.798571 0.341643 0 0 0
4 1 0.999833 0.655323 0.36503 0 0 0
5 1 0.994657 0.801217 0.488654 0 0 0
6 4 0.820635 0.52073 0.433782 0 0 0
7 1 0.817703 0.720648 0.55778 0 0 0
8 1 0.913857 0.597641 0.601694 0 0 0
9 3 0.771294 0.404349 0.518513 0 0 0
10 3 0.694459 0.451134 0.637102 0 0 0
11 1 0.733095 0.328906 0.446285 0 0 0
12 1 0.832252 0.342435 0.568257 0 0 0
13 4 0.637876 0.324456 0.696749 0 0 0
14 1 0.639627 0.531269 0.600367 0 0 0
15 1 0.73939 0.505565 0.719249 0 0 0
16 3 0.763466 0.556539 0.301459 0 0 0
17 3 0.66789 0.644175 0.334685 0 0 0
18 1 0.740934 0.459128 0.242298 0 0 0
19 1 0.813888 0.617066 0.23052 0 0 0
20 4 0.642834 0.703049 0.194101 0 0 0
21 1 0.685983 0.724182 0.416166 0 0 0
22 1 0.602896 0.585338 0.374388 0 0 0
23 2 0.57851 0.651474 0.157393 0 0 0
24 3 0.567695 0.237594 0.602229 0 0 0
25 3 0.498508 0.324959 0.499327 0 0 0
26 1 0.519366 0.167163 0.666647 0 0 0
27 1 0.614697 0.165149 0.537554 0 0 0
29 1 0.54664 0.373773 0.41881 0 0 0
39 3 0.610606 0.335101 0.851524 0 0 0
40 3 0.519361 0.435224 0.886538 0 0 0
41 1 0.596203 0.226305 0.892931 0 0 0
42 1 0.677089 0.37497 0.909795 0 0 0
44 1 0.52221 0.534376 0.822876 0 0 0
45 1 0.523118 0.465856 0.999088 0 0 0
66 3 0.636893 0.86183 0.197446 0 0 0
67 3 0.526353 0.915743 0.177675 0 0 0
68 1 0.660525 0.909906 0.298354 0 0 0
69 1 0.693263 0.902696 0.12198 0 0 0
71 1 0.515885 0.956034 0.0696399 0 0 0
72 1 0.512921 1.00396 0.252881 0 0 0
ITEM: TIMESTEP
75
ITEM: NUMBER OF ATOMS
74
ITEM: BOX BOUNDS ss ss ss
-6.37432 6.76606
-4.16417 5.0448
-4.19823 5.16635
ITEM: ATOMS id type xs ys zs ix iy iz
28 4 0.424286 0.228364 0.426183 0 0 0
30 1 0.459829 0.409762 0.556856 0 0 0
31 2 0.369616 0.198624 0.497926 0 0 0
32 3 0.373479 0.292229 0.299227 0 0 0
33 3 0.293339 0.411648 0.330777 0 0 0
34 1 0.430929 0.33573 0.226281 0 0 0
35 1 0.335692 0.20349 0.242975 0 0 0
36 4 0.19973 0.34837 0.398492 0 0 0
37 1 0.275325 0.463305 0.228771 0 0 0
38 1 0.326394 0.497323 0.396827 0 0 0
43 4 0.420561 0.36376 0.864209 0 0 0
46 2 0.417002 0.334273 0.759328 0 0 0
47 2 0.421268 0.269848 0.922483 0 0 0
48 3 0.100914 0.384338 0.326027 0 0 0
49 3 0.0775502 0.280389 0.20035 0 0 0
50 1 0.100659 0.496831 0.288577 0 0 0
51 1 0.0371628 0.374756 0.400367 0 0 0
52 4 0.147981 0.297894 0.0801258 0 0 0
53 1 0.000622358 0.301139 0.161156 0 0 0
54 1 0.0812693 0.168097 0.237393 0 0 0
55 2 0.138918 0.401236 0.0423325 0 0 0
56 2 0.124131 0.229187 0.00118202 0 0 0
57 3 0.197595 0.353877 0.55848 0 0 0
58 3 0.14589 0.219092 0.625304 0 0 0
59 1 0.274497 0.358574 0.602345 0 0 0
60 1 0.158446 0.452229 0.594068 0 0 0
61 4 0.198859 0.0850039 0.584998 0 0 0
62 1 0.0665862 0.211174 0.591862 0 0 0
63 1 0.147586 0.228514 0.741519 0 0 0
64 2 0.190233 0.0728155 0.477168 0 0 0
65 2 0.160612 0.00106052 0.632149 0 0 0
70 4 0.448362 0.806593 0.213809 0 0 0
73 2 0.45432 0.727141 0.137718 0 0 0
74 2 0.377595 0.850796 0.203418 0 0 0
1 3 0.950025 0.728468 0.422348 0 0 0
2 3 0.874133 0.638966 0.514199 0 0 0
3 1 0.909858 0.796263 0.345134 0 0 0
4 1 1.00128 0.655492 0.365404 0 0 0
5 1 0.99501 0.799779 0.490594 0 0 0
6 4 0.822627 0.517725 0.435336 0 0 0
7 1 0.818749 0.714119 0.560182 0 0 0
8 1 0.917266 0.593406 0.602944 0 0 0
9 3 0.773445 0.400121 0.522978 0 0 0
10 3 0.695827 0.448817 0.637528 0 0 0
11 1 0.737065 0.323393 0.450482 0 0 0
12 1 0.834352 0.339916 0.575231 0 0 0
13 4 0.637086 0.322828 0.699023 0 0 0
14 1 0.642018 0.528625 0.597422 0 0 0
15 1 0.739221 0.503457 0.721406 0 0 0
16 3 0.766222 0.554441 0.302727 0 0 0
17 3 0.669766 0.645641 0.329314 0 0 0
18 1 0.7446 0.456522 0.244113 0 0 0
19 1 0.817494 0.613304 0.231275 0 0 0
20 4 0.645623 0.712731 0.191833 0 0 0
21 1 0.682701 0.723102 0.415356 0 0 0
22 1 0.605368 0.579867 0.360987 0 0 0
23 2 0.580474 0.665136 0.154502 0 0 0
24 3 0.567458 0.23588 0.604038 0 0 0
25 3 0.498921 0.32263 0.500036 0 0 0
26 1 0.518601 0.165819 0.668815 0 0 0
27 1 0.61453 0.162657 0.540526 0 0 0
29 1 0.548029 0.369404 0.419246 0 0 0
39 3 0.610121 0.334142 0.852962 0 0 0
40 3 0.518836 0.435216 0.887483 0 0 0
41 1 0.59483 0.225548 0.895121 0 0 0
42 1 0.676318 0.373513 0.912169 0 0 0
44 1 0.522484 0.533803 0.822993 0 0 0
45 1 0.522344 0.466476 0.999693 0 0 0
66 3 0.634373 0.872067 0.195261 0 0 0
67 3 0.522634 0.920042 0.176787 0 0 0
68 1 0.664908 0.920588 0.292954 0 0 0
69 1 0.681482 0.913397 0.108492 0 0 0
71 1 0.510321 0.953103 0.0662764 0 0 0
72 1 0.508323 1.01316 0.24597 0 0 0
ITEM: TIMESTEP
100
ITEM: NUMBER OF ATOMS
74
ITEM: BOX BOUNDS ss ss ss
-6.37432 6.76606
-4.16417 5.0448
-4.19823 5.16635
ITEM: ATOMS id type xs ys zs ix iy iz
28 4 0.424504 0.226756 0.428297 0 0 0
30 1 0.462599 0.408579 0.556118 0 0 0
31 2 0.369662 0.199561 0.500814 0 0 0
32 3 0.374018 0.290571 0.301085 0 0 0
33 3 0.294003 0.410411 0.331809 0 0 0
34 1 0.431762 0.333555 0.228364 0 0 0
35 1 0.336135 0.201845 0.244933 0 0 0
36 4 0.19994 0.348072 0.399165 0 0 0
37 1 0.276366 0.461714 0.229499 0 0 0
38 1 0.327104 0.496156 0.397744 0 0 0
43 4 0.419454 0.365126 0.864234 0 0 0
46 2 0.416334 0.334779 0.759575 0 0 0
47 2 0.418935 0.2718 0.923387 0 0 0
48 3 0.101292 0.38436 0.326304 0 0 0
49 3 0.0776458 0.280187 0.200906 0 0 0
50 1 0.101381 0.496734 0.288511 0 0 0
51 1 0.0374249 0.375366 0.40054 0 0 0
52 4 0.147678 0.297876 0.0802674 0 0 0
53 1 0.00056952 0.300685 0.162126 0 0 0
54 1 0.0816 0.167932 0.238011 0 0 0
55 2 0.138126 0.401081 0.0423449 0 0 0
56 2 0.123764 0.228887 0.00159394 0 0 0
57 3 0.197483 0.353914 0.559125 0 0 0
58 3 0.145821 0.218994 0.625712 0 0 0
59 1 0.274289 0.359008 0.603326 0 0 0
60 1 0.158045 0.452151 0.594417 0 0 0
61 4 0.198848 0.0850326 0.585143 0 0 0
62 1 0.0665317 0.2111 0.592173 0 0 0
63 1 0.147475 0.228209 0.741941 0 0 0
64 2 0.190537 0.0733379 0.477207 0 0 0
65 2 0.160417 0.000920196 0.631694 0 0 0
70 4 0.445946 0.813155 0.218855 0 0 0
73 2 0.452705 0.729553 0.147544 0 0 0
74 2 0.374499 0.854838 0.205115 0 0 0
1 3 0.95076 0.725071 0.427398 0 0 0
2 3 0.875885 0.633273 0.51745 0 0 0
3 1 0.909693 0.793993 0.352065 0 0 0
4 1 1.00251 0.654351 0.368419 0 0 0
5 1 0.995581 0.795525 0.496946 0 0 0
6 4 0.822313 0.514655 0.437161 0 0 0
7 1 0.820543 0.706086 0.566824 0 0 0
8 1 0.920308 0.584401 0.60367 0 0 0
9 3 0.775942 0.396015 0.525091 0 0 0
10 3 0.695644 0.444197 0.637722 0 0 0
11 1 0.74248 0.315469 0.453858 0 0 0
12 1 0.837333 0.340061 0.58143 0 0 0
13 4 0.637062 0.319743 0.700616 0 0 0
14 1 0.642822 0.522521 0.592127 0 0 0
15 1 0.73723 0.501782 0.72146 0 0 0
16 3 0.767541 0.553787 0.302066 0 0 0
17 3 0.672028 0.650589 0.3202 0 0 0
18 1 0.745606 0.454935 0.245223 0 0 0
19 1 0.821349 0.608429 0.231469 0 0 0
20 4 0.650121 0.724372 0.183107 0 0 0
21 1 0.683783 0.72695 0.407569 0 0 0
22 1 0.606196 0.584675 0.347221 0 0 0
23 2 0.588265 0.674727 0.138235 0 0 0
24 3 0.56714 0.232284 0.606778 0 0 0
25 3 0.500713 0.319919 0.500399 0 0 0
26 1 0.516947 0.164675 0.671789 0 0 0
27 1 0.614079 0.157014 0.545307 0 0 0
29 1 0.551021 0.365113 0.419657 0 0 0
39 3 0.608878 0.332645 0.855129 0 0 0
40 3 0.518338 0.435105 0.887918 0 0 0
41 1 0.592573 0.224746 0.897958 0 0 0
42 1 0.675179 0.371407 0.914482 0 0 0
44 1 0.522955 0.533258 0.823008 0 0 0
45 1 0.521274 0.467112 1.00016 0 0 0
66 3 0.631133 0.88292 0.188111 0 0 0
67 3 0.517602 0.926093 0.172915 0 0 0
68 1 0.662864 0.932295 0.284506 0 0 0
69 1 0.673255 0.929548 0.0987359 0 0 0
71 1 0.501093 0.951613 0.0614439 0 0 0
72 1 0.50302 1.02343 0.236314 0 0 0
ITEM: TIMESTEP
125
ITEM: NUMBER OF ATOMS
74
ITEM: BOX BOUNDS ss ss ss
-6.37432 6.76606
-4.16417 5.0448
-4.19823 5.16635
ITEM: ATOMS id type xs ys zs ix iy iz
28 4 0.424609 0.226452 0.428522 0 0 0
30 1 0.46297 0.408395 0.555916 0 0 0
31 2 0.369797 0.199627 0.501235 0 0 0
32 3 0.374125 0.290147 0.301328 0 0 0
33 3 0.29418 0.410117 0.332003 0 0 0
34 1 0.43187 0.332991 0.228521 0 0 0
35 1 0.336177 0.201391 0.245316 0 0 0
36 4 0.200052 0.347973 0.399345 0 0 0
37 1 0.276611 0.461392 0.229669 0 0 0
38 1 0.327336 0.495829 0.397927 0 0 0
43 4 0.419307 0.365557 0.864047 0 0 0
46 2 0.416216 0.334882 0.759477 0 0 0
47 2 0.418451 0.272427 0.923512 0 0 0
48 3 0.101448 0.38438 0.32641 0 0 0
49 3 0.0777308 0.280146 0.201093 0 0 0
50 1 0.101649 0.496722 0.288531 0 0 0
51 1 0.0375606 0.375563 0.40063 0 0 0
52 4 0.147647 0.297865 0.0803279 0 0 0
53 1 0.000613076 0.30058 0.162437 0 0 0
54 1 0.0817535 0.167904 0.23822 0 0 0
55 2 0.137975 0.401032 0.0423613 0 0 0
56 2 0.123706 0.228796 0.0017385 0 0 0
57 3 0.197522 0.353874 0.559301 0 0 0
58 3 0.145828 0.218952 0.625836 0 0 0
59 1 0.274307 0.359007 0.603579 0 0 0
60 1 0.158045 0.452102 0.594536 0 0 0
61 4 0.198851 0.0850002 0.585227 0 0 0
62 1 0.0665457 0.211089 0.59225 0 0 0
63 1 0.147452 0.228121 0.742069 0 0 0
64 2 0.190632 0.0734324 0.477264 0 0 0
65 2 0.160352 0.000860087 0.631618 0 0 0
70 4 0.446128 0.813673 0.220508 0 0 0
73 2 0.452865 0.729031 0.150401 0 0 0
74 2 0.374453 0.854601 0.206814 0 0 0
1 3 0.950805 0.724528 0.428195 0 0 0
2 3 0.875792 0.632366 0.517915 0 0 0
3 1 0.909751 0.793737 0.353186 0 0 0
4 1 1.0025 0.653926 0.369037 0 0 0
5 1 0.995614 0.79454 0.498143 0 0 0
6 4 0.821985 0.514576 0.437054 0 0 0
7 1 0.82063 0.70515 0.567747 0 0 0
8 1 0.920298 0.583015 0.603721 0 0 0
9 3 0.775707 0.395466 0.525166 0 0 0
10 3 0.695515 0.443797 0.637342 0 0 0
11 1 0.742576 0.314825 0.453748 0 0 0
12 1 0.837261 0.339894 0.581485 0 0 0
13 4 0.636971 0.319169 0.700868 0 0 0
14 1 0.642556 0.521759 0.591553 0 0 0
15 1 0.736835 0.501644 0.721184 0 0 0
16 3 0.767414 0.553799 0.301979 0 0 0
17 3 0.672338 0.65204 0.319176 0 0 0
18 1 0.744955 0.455127 0.245296 0 0 0
19 1 0.821649 0.607668 0.231321 0 0 0
20 4 0.651274 0.726347 0.182044 0 0 0
21 1 0.684544 0.72832 0.406482 0 0 0
22 1 0.606049 0.586853 0.346077 0 0 0
23 2 0.590573 0.675853 0.134983 0 0 0
24 3 0.567101 0.231832 0.606903 0 0 0
25 3 0.500985 0.319541 0.500349 0 0 0
26 1 0.516683 0.164522 0.672061 0 0 0
27 1 0.613961 0.1562 0.54579 0 0 0
29 1 0.551395 0.364631 0.419519 0 0 0
39 3 0.608792 0.332423 0.855061 0 0 0
40 3 0.518258 0.435197 0.887816 0 0 0
41 1 0.592259 0.224637 0.898188 0 0 0
42 1 0.675051 0.371123 0.914553 0 0 0
44 1 0.523119 0.533255 0.822793 0 0 0
45 1 0.521216 0.467262 0.999975 0 0 0
66 3 0.630819 0.884658 0.18724 0 0 0
67 3 0.517053 0.926417 0.172067 0 0 0
68 1 0.662209 0.93422 0.283743 0 0 0
69 1 0.672515 0.932212 0.0979379 0 0 0
71 1 0.499955 0.949813 0.0603014 0 0 0
72 1 0.50223 1.02478 0.233853 0 0 0
ITEM: TIMESTEP
150
ITEM: NUMBER OF ATOMS
74
ITEM: BOX BOUNDS ss ss ss
-6.37432 6.76606
-4.16417 5.0448
-4.19823 5.16635
ITEM: ATOMS id type xs ys zs ix iy iz
28 4 0.424873 0.225125 0.428735 0 0 0
30 1 0.463532 0.407499 0.555057 0 0 0
31 2 0.370175 0.199088 0.501898 0 0 0
32 3 0.374222 0.288461 0.301612 0 0 0
33 3 0.29479 0.409048 0.332451 0 0 0
34 1 0.431919 0.330571 0.228329 0 0 0
35 1 0.335853 0.199631 0.246291 0 0 0
36 4 0.200475 0.347699 0.399964 0 0 0
37 1 0.27736 0.460406 0.230121 0 0 0
38 1 0.328296 0.494526 0.398307 0 0 0
43 4 0.41878 0.367415 0.86309 0 0 0
46 2 0.41597 0.335439 0.758897 0 0 0
47 2 0.416803 0.275136 0.923753 0 0 0
48 3 0.102012 0.384496 0.326909 0 0 0
49 3 0.0780625 0.279963 0.20193 0 0 0
50 1 0.102577 0.496711 0.288671 0 0 0
51 1 0.0380906 0.376332 0.401142 0 0 0
52 4 0.147556 0.297778 0.0807011 0 0 0
53 1 0.000788639 0.30006 0.163737 0 0 0
54 1 0.0824076 0.167795 0.239208 0 0 0
55 2 0.137441 0.400781 0.0425297 0 0 0
56 2 0.123559 0.228362 0.00244142 0 0 0
57 3 0.197872 0.353636 0.559922 0 0 0
58 3 0.145975 0.218783 0.626302 0 0 0
59 1 0.274629 0.358656 0.604298 0 0 0
60 1 0.158429 0.451911 0.595117 0 0 0
61 4 0.198895 0.0847627 0.585655 0 0 0
62 1 0.0667177 0.211117 0.592543 0 0 0
63 1 0.147484 0.227839 0.742549 0 0 0
64 2 0.191076 0.0736185 0.477591 0 0 0
65 2 0.16005 0.000609505 0.63145 0 0 0
70 4 0.447982 0.814582 0.228635 0 0 0
73 2 0.45492 0.725009 0.16481 0 0 0
74 2 0.375248 0.851553 0.215356 0 0 0
1 3 0.950724 0.722233 0.430777 0 0 0
2 3 0.875352 0.629746 0.519127 0 0 0
3 1 0.909961 0.792646 0.356527 0 0 0
4 1 1.00223 0.651954 0.370912 0 0 0
5 1 0.995726 0.790949 0.50177 0 0 0
6 4 0.820535 0.51381 0.436889 0 0 0
7 1 0.820694 0.702257 0.570419 0 0 0
8 1 0.919753 0.57838 0.603991 0 0 0
9 3 0.774489 0.394173 0.523942 0 0 0
10 3 0.694479 0.442501 0.636583 0 0 0
11 1 0.741288 0.313837 0.452249 0 0 0
12 1 0.835973 0.338207 0.580139 0 0 0
13 4 0.636645 0.317921 0.700637 0 0 0
14 1 0.641455 0.520098 0.590223 0 0 0
15 1 0.735808 0.500873 0.719995 0 0 0
16 3 0.766638 0.55478 0.301376 0 0 0
17 3 0.674028 0.658153 0.316745 0 0 0
18 1 0.741827 0.456762 0.245489 0 0 0
19 1 0.822507 0.605045 0.230691 0 0 0
20 4 0.656239 0.734364 0.179309 0 0 0
21 1 0.688205 0.734291 0.403543 0 0 0
22 1 0.605832 0.596604 0.343355 0 0 0
23 2 0.600331 0.680651 0.12466 0 0 0
24 3 0.566718 0.230416 0.607129 0 0 0
25 3 0.501429 0.318413 0.499733 0 0 0
26 1 0.515785 0.164049 0.672391 0 0 0
27 1 0.613459 0.153986 0.546777 0 0 0
29 1 0.552011 0.363473 0.41883 0 0 0
39 3 0.608101 0.331981 0.854928 0 0 0
40 3 0.518131 0.435859 0.887014 0 0 0
41 1 0.590993 0.224439 0.898458 0 0 0
42 1 0.674602 0.370167 0.914381 0 0 0
44 1 0.523717 0.53359 0.821783 0 0 0
45 1 0.521082 0.46818 0.99911 0 0 0
66 3 0.630061 0.891067 0.185198 0 0 0
67 3 0.51526 0.925809 0.168453 0 0 0
68 1 0.659084 0.941743 0.282664 0 0 0
69 1 0.67059 0.942578 0.0967408 0 0 0
71 1 0.496632 0.937812 0.0554284 0 0 0
72 1 0.498763 1.02884 0.221448 0 0 0
ITEM: TIMESTEP
175
ITEM: NUMBER OF ATOMS
74
ITEM: BOX BOUNDS ss ss ss
-6.37432 6.76606
-4.16417 5.0448
-4.19823 5.16635
ITEM: ATOMS id type xs ys zs ix iy iz
28 4 0.424871 0.224911 0.428621 0 0 0
30 1 0.463443 0.407327 0.55494 0 0 0
31 2 0.370196 0.198839 0.501815 0 0 0
32 3 0.374183 0.288204 0.301544 0 0 0
33 3 0.294846 0.40891 0.332442 0 0 0
34 1 0.43186 0.3302 0.228165 0 0 0
35 1 0.335724 0.199387 0.246328 0 0 0
36 4 0.200528 0.347675 0.400032 0 0 0
37 1 0.277415 0.460292 0.230128 0 0 0
38 1 0.328428 0.494344 0.398275 0 0 0
43 4 0.418683 0.367761 0.86293 0 0 0
46 2 0.415927 0.335575 0.758781 0 0 0
47 2 0.416569 0.275593 0.923753 0 0 0
48 3 0.102067 0.384512 0.326995 0 0 0
49 3 0.0780907 0.279925 0.202074 0 0 0
50 1 0.102668 0.496708 0.288706 0 0 0
51 1 0.0381559 0.376427 0.401252 0 0 0
52 4 0.147529 0.297745 0.0807822 0 0 0
53 1 0.000794839 0.299965 0.163941 0 0 0
54 1 0.0824862 0.167771 0.239383 0 0 0
55 2 0.137358 0.400723 0.0425749 0 0 0
56 2 0.123533 0.228273 0.00257085 0 0 0
57 3 0.197956 0.353591 0.559989 0 0 0
58 3 0.146022 0.218766 0.626366 0 0 0
59 1 0.274723 0.358548 0.604336 0 0 0
60 1 0.158554 0.451889 0.595212 0 0 0
61 4 0.198911 0.0847159 0.585731 0 0 0
62 1 0.0667655 0.211137 0.592593 0 0 0
63 1 0.14752 0.22782 0.742614 0 0 0
64 2 0.191149 0.0736159 0.477655 0 0 0
65 2 0.160006 0.00057762 0.631453 0 0 0
70 4 0.44841 0.814646 0.230308 0 0 0
73 2 0.455519 0.724062 0.167902 0 0 0
74 2 0.375449 0.850811 0.216853 0 0 0
1 3 0.950752 0.721904 0.431029 0 0 0
2 3 0.87529 0.629332 0.519272 0 0 0
3 1 0.910026 0.792445 0.35689 0 0 0
4 1 1.00221 0.651619 0.371104 0 0 0
5 1 0.995773 0.790431 0.502155 0 0 0
6 4 0.820368 0.51382 0.436739 0 0 0
7 1 0.820741 0.70189 0.570726 0 0 0
8 1 0.919674 0.577745 0.603978 0 0 0
9 3 0.774192 0.393995 0.523712 0 0 0
10 3 0.694363 0.442407 0.636363 0 0 0
11 1 0.740904 0.313901 0.451846 0 0 0
12 1 0.835663 0.33784 0.579705 0 0 0
13 4 0.636479 0.31776 0.700699 0 0 0
14 1 0.641279 0.520043 0.59012 0 0 0
15 1 0.735729 0.500715 0.719818 0 0 0
16 3 0.766589 0.554959 0.301326 0 0 0
17 3 0.674403 0.659272 0.316538 0 0 0
18 1 0.741299 0.457191 0.245476 0 0 0
19 1 0.822652 0.604718 0.230551 0 0 0
20 4 0.657117 0.735758 0.179135 0 0 0
21 1 0.688961 0.735315 0.403298 0 0 0
22 1 0.605912 0.598283 0.343208 0 0 0
23 2 0.601947 0.681475 0.123486 0 0 0
24 3 0.566621 0.230309 0.607043 0 0 0
25 3 0.50138 0.318279 0.499616 0 0 0
26 1 0.515655 0.16399 0.672352 0 0 0
27 1 0.613354 0.153796 0.546776 0 0 0
29 1 0.551958 0.363451 0.41872 0 0 0
39 3 0.608028 0.331907 0.854816 0 0 0
40 3 0.518114 0.43597 0.886876 0 0 0
41 1 0.590772 0.224532 0.89837 0 0 0
42 1 0.674471 0.37004 0.914257 0 0 0
44 1 0.523778 0.533749 0.821593 0 0 0
45 1 0.521055 0.468381 0.998951 0 0 0
66 3 0.62999 0.892111 0.185124 0 0 0
67 3 0.515093 0.925318 0.167813 0 0 0
68 1 0.658355 0.942861 0.282824 0 0 0
69 1 0.67033 0.944211 0.0970114 0 0 0
71 1 0.496298 0.934865 0.0546098 0 0 0
72 1 0.498051 1.0292 0.218849 0 0 0
ITEM: TIMESTEP
200
ITEM: NUMBER OF ATOMS
74
ITEM: BOX BOUNDS ss ss ss
-6.37432 6.76606
-4.16417 5.0448
-4.19823 5.16635
ITEM: ATOMS id type xs ys zs ix iy iz
28 4 0.424871 0.224578 0.428406 0 0 0
30 1 0.463239 0.407043 0.554765 0 0 0
31 2 0.37023 0.198398 0.501607 0 0 0
32 3 0.374099 0.287818 0.301379 0 0 0
33 3 0.294921 0.408689 0.332393 0 0 0
34 1 0.431747 0.329624 0.227856 0 0 0
35 1 0.335504 0.199004 0.246343 0 0 0
36 4 0.200599 0.347633 0.400121 0 0 0
37 1 0.277472 0.460108 0.230102 0 0 0
38 1 0.328619 0.494064 0.398177 0 0 0
43 4 0.418514 0.368332 0.862655 0 0 0
46 2 0.415829 0.335835 0.758599 0 0 0
47 2 0.416172 0.276368 0.923747 0 0 0
48 3 0.10214 0.384526 0.32714 0 0 0
49 3 0.0781113 0.279854 0.202309 0 0 0
50 1 0.102787 0.496694 0.288769 0 0 0
51 1 0.0382493 0.376561 0.401443 0 0 0
52 4 0.147463 0.297672 0.0809187 0 0 0
53 1 0.000781849 0.299808 0.164275 0 0 0
54 1 0.0825844 0.167725 0.239673 0 0 0
55 2 0.137206 0.40061 0.0426511 0 0 0
56 2 0.123467 0.22811 0.00278609 0 0 0
57 3 0.1981 0.353519 0.560082 0 0 0
58 3 0.146106 0.218742 0.62647 0 0 0
59 1 0.274885 0.358367 0.604362 0 0 0
60 1 0.158772 0.451858 0.595355 0 0 0
61 4 0.198941 0.0846416 0.585854 0 0 0
62 1 0.0668494 0.211176 0.592687 0 0 0
63 1 0.1476 0.227802 0.742717 0 0 0
64 2 0.191263 0.0736055 0.47776 0 0 0
65 2 0.159941 0.000532159 0.631471 0 0 0
70 4 0.449098 0.814805 0.233197 0 0 0
73 2 0.45661 0.722377 0.173562 0 0 0
74 2 0.375809 0.849433 0.219355 0 0 0
1 3 0.950811 0.721295 0.431475 0 0 0
2 3 0.875294 0.628731 0.519439 0 0 0
3 1 0.910163 0.792108 0.357468 0 0 0
4 1 1.00221 0.651064 0.371376 0 0 0
5 1 0.995905 0.789576 0.502761 0 0 0
6 4 0.820086 0.513617 0.436638 0 0 0
7 1 0.820888 0.701236 0.571262 0 0 0
8 1 0.919622 0.576618 0.603937 0 0 0
9 3 0.773797 0.393814 0.523135 0 0 0
10 3 0.694064 0.442202 0.636162 0 0 0
11 1 0.740259 0.314023 0.451169 0 0 0
12 1 0.835138 0.337195 0.57899 0 0 0
13 4 0.636307 0.317656 0.700457 0 0 0
14 1 0.64102 0.519957 0.589927 0 0 0
15 1 0.7356 0.500455 0.719472 0 0 0
16 3 0.766479 0.555418 0.301136 0 0 0
17 3 0.67511 0.661079 0.316309 0 0 0
18 1 0.740451 0.457928 0.245454 0 0 0
19 1 0.822922 0.604174 0.230331 0 0 0
20 4 0.65858 0.738058 0.178905 0 0 0
21 1 0.690303 0.737047 0.402913 0 0 0
22 1 0.606131 0.601174 0.343031 0 0 0
23 2 0.604695 0.682918 0.121626 0 0 0
24 3 0.566433 0.230119 0.606936 0 0 0
25 3 0.501266 0.318124 0.499384 0 0 0
26 1 0.515433 0.163913 0.672229 0 0 0
27 1 0.61317 0.153549 0.546721 0 0 0
29 1 0.551822 0.363511 0.418556 0 0 0
39 3 0.607781 0.331907 0.854688 0 0 0
40 3 0.518065 0.436242 0.886593 0 0 0
41 1 0.59039 0.224607 0.89823 0 0 0
42 1 0.674302 0.369865 0.914061 0 0 0
44 1 0.523866 0.533982 0.821287 0 0 0
45 1 0.521013 0.468719 0.99868 0 0 0
66 3 0.629786 0.89375 0.185131 0 0 0
67 3 0.514658 0.924387 0.166685 0 0 0
68 1 0.657021 0.944764 0.283328 0 0 0
69 1 0.669945 0.947099 0.09757 0 0 0
71 1 0.495794 0.929508 0.0532352 0 0 0
72 1 0.496798 1.02973 0.214141 0 0 0
ITEM: TIMESTEP
211
ITEM: NUMBER OF ATOMS
74
ITEM: BOX BOUNDS ss ss ss
-6.37432 6.76606
-4.16417 5.0448
-4.19823 5.16635
ITEM: ATOMS id type xs ys zs ix iy iz
28 4 0.42479 0.223748 0.427481 0 0 0
30 1 0.462349 0.406273 0.554274 0 0 0
31 2 0.370253 0.196982 0.50064 0 0 0
32 3 0.373778 0.286849 0.300663 0 0 0
33 3 0.294972 0.408126 0.332023 0 0 0
34 1 0.431322 0.328224 0.226744 0 0 0
35 1 0.33483 0.198059 0.246066 0 0 0
36 4 0.200725 0.347479 0.400278 0 0 0
37 1 0.277415 0.459592 0.229794 0 0 0
38 1 0.329 0.49339 0.397602 0 0 0
43 4 0.417959 0.370159 0.861815 0 0 0
46 2 0.415388 0.336742 0.758039 0 0 0
47 2 0.414966 0.278777 0.923688 0 0 0
48 3 0.102212 0.384491 0.327555 0 0 0
49 3 0.0779918 0.279581 0.202996 0 0 0
50 1 0.102931 0.496584 0.288963 0 0 0
51 1 0.0384284 0.376815 0.402056 0 0 0
52 4 0.147098 0.297322 0.0813122 0 0 0
53 1 0.000568564 0.299342 0.165248 0 0 0
54 1 0.0826475 0.167522 0.240525 0 0 0
55 2 0.136642 0.400152 0.0428681 0 0 0
56 2 0.123074 0.227516 0.00341138 0 0 0
57 3 0.19852 0.35331 0.560239 0 0 0
58 3 0.146402 0.218704 0.626763 0 0 0
59 1 0.275391 0.35785 0.604213 0 0 0
60 1 0.159451 0.451797 0.595659 0 0 0
61 4 0.199056 0.0844479 0.586191 0 0 0
62 1 0.0671233 0.21132 0.59306 0 0 0
63 1 0.147959 0.227847 0.742994 0 0 0
64 2 0.191542 0.0735436 0.478066 0 0 0
65 2 0.159818 0.000452997 0.631606 0 0 0
70 4 0.450942 0.815936 0.242522 0 0 0
73 2 0.46059 0.717667 0.193541 0 0 0
74 2 0.376693 0.844865 0.22643 0 0 0
1 3 0.951367 0.719428 0.432611 0 0 0
2 3 0.875666 0.626558 0.519951 0 0 0
3 1 0.910846 0.791011 0.359205 0 0 0
4 1 1.00252 0.649366 0.371938 0 0 0
5 1 0.996659 0.786859 0.504418 0 0 0
6 4 0.819516 0.513254 0.436046 0 0 0
7 1 0.821854 0.699014 0.573054 0 0 0
8 1 0.919964 0.572866 0.603489 0 0 0
9 3 0.772524 0.393216 0.521586 0 0 0
10 3 0.693357 0.441856 0.635124 0 0 0
11 1 0.738375 0.31458 0.448958 0 0 0
12 1 0.833549 0.335242 0.576744 0 0 0
13 4 0.635624 0.317422 0.699794 0 0 0
14 1 0.640318 0.519861 0.589229 0 0 0
15 1 0.735241 0.499748 0.718336 0 0 0
16 3 0.766439 0.556913 0.30075 0 0 0
17 3 0.677612 0.666987 0.31595 0 0 0
18 1 0.737986 0.46064 0.245366 0 0 0
19 1 0.823884 0.602777 0.229622 0 0 0
20 4 0.663183 0.745319 0.178871 0 0 0
21 1 0.694921 0.742512 0.402117 0 0 0
22 1 0.607309 0.610336 0.343065 0 0 0
23 2 0.613414 0.687659 0.116875 0 0 0
24 3 0.565807 0.229829 0.606295 0 0 0
25 3 0.500744 0.317829 0.498693 0 0 0
26 1 0.514746 0.163756 0.671676 0 0 0
27 1 0.61254 0.153141 0.546233 0 0 0
29 1 0.551179 0.364052 0.418066 0 0 0
39 3 0.607072 0.332043 0.853907 0 0 0
40 3 0.517782 0.437228 0.885692 0 0 0
41 1 0.589183 0.224956 0.897608 0 0 0
42 1 0.673725 0.369492 0.913309 0 0 0
44 1 0.524021 0.534805 0.820231 0 0 0
45 1 0.520866 0.469858 0.997711 0 0 0
66 3 0.628754 0.898627 0.185678 0 0 0
67 3 0.51319 0.920299 0.163071 0 0 0
68 1 0.651961 0.950282 0.285544 0 0 0
69 1 0.668313 0.956059 0.100106 0 0 0
71 1 0.494844 0.910365 0.0498099 0 0 0
72 1 0.492275 1.02952 0.197766 0 0 0
ITEM: TIMESTEP
212
ITEM: NUMBER OF ATOMS
74
ITEM: BOX BOUNDS ss ss ss
-6.37684 6.80923
-4.17 5.32664
-4.17628 5.15491
ITEM: ATOMS id type xs ys zs ix iy iz
28 4 0.423515 0.217582 0.426666 0 0 0
30 1 0.460933 0.394575 0.553904 0 0 0
31 2 0.369161 0.191622 0.50007 0 0 0
32 3 0.372665 0.278778 0.299374 0 0 0
33 3 0.294148 0.396371 0.330855 0 0 0
34 1 0.430015 0.31889 0.225199 0 0 0
35 1 0.333859 0.192671 0.244592 0 0 0
36 4 0.200219 0.337568 0.399345 0 0 0