LAMMPS (10 Feb 2015)
units           real
atom_style      full
boundary        s s s
dielectric      72
special_bonds   lj/coul 0.0 0.0 1.0

pair_style      lj/cut/coul/debye 0.142 10
bond_style      harmonic
angle_style     harmonic
dihedral_style  charmm
improper_style  none
kspace_style    none

read_data       data._polymer_1
  orthogonal box = (-50 -50 -50) to (50 50 50)
  1 by 1 by 1 MPI processor grid
  reading atoms ...
  18 atoms
  scanning bonds ...
  4 = max bonds/atom
  scanning angles ...
  6 = max angles/atom
  scanning dihedrals ...
  12 = max dihedrals/atom
  reading bonds ...
  17 bonds
  reading angles ...
  30 angles
  reading dihedrals ...
  36 dihedrals
  4 = max # of 1-2 neighbors
  6 = max # of 1-3 neighbors
  9 = max # of special neighbors

pair_modify     mix geometric
neighbor        2.0 multi
neigh_modify    every 2 delay 4 check yes
thermo_style    multi

variable        input index in._polymer_1
variable        sname index _polymer_1

print                          .
.
print ==========================================
==========================================
print "500 steps CG Minimization"
500 steps CG Minimization
print ==========================================
==========================================
print                          .
.

dump            1 all atom 25 ${sname}.min.lammpstrj
dump            1 all atom 25 _polymer_1.min.lammpstrj
dump_modify     1 image yes scale yes
thermo          10
min_style       sd
minimize        1.0e-4 1.0e-4 500 5000
WARNING: Resetting reneighboring criteria during minimization (../min.cpp:168)
Neighbor list info ...
  1 neighbor list requests
  update every 1 steps, delay 0 steps, check yes
  master list distance cutoff = 12
Memory usage per processor = 1.0478 Mbytes
---------------- Step        0 ----- CPU =      0.0000 (sec) ----------------
TotEng   = 53257862703.6845 KinEng   =         0.0000 Temp     =         0.0000 
PotEng   = 53257862703.6845 E_bond   =       450.1443 E_angle  =       192.5414 
E_dihed  =         2.2135 E_impro  =         0.0000 E_vdwl   = 53257862058.7113 
E_coul   =         0.0739 E_long   =         0.0000 Press    = 225916017427592.7500 
Volume   =        64.6578 
---------------- Step       10 ----- CPU =      0.0006 (sec) ----------------
TotEng   =    165229.4375 KinEng   =         0.0000 Temp     =         0.0000 
PotEng   =    165229.4375 E_bond   =       700.2701 E_angle  =       193.4300 
E_dihed  =         2.0229 E_impro  =         0.0000 E_vdwl   =    164333.6859 
E_coul   =         0.0286 E_long   =         0.0000 Press    = 696663638.5095 
Volume   =        64.6578 
---------------- Step       20 ----- CPU =      0.0008 (sec) ----------------
TotEng   =      1317.0248 KinEng   =         0.0000 Temp     =         0.0000 
PotEng   =      1317.0248 E_bond   =       796.3124 E_angle  =       192.4676 
E_dihed  =         3.3657 E_impro  =         0.0000 E_vdwl   =       324.8197 
E_coul   =         0.0594 E_long   =         0.0000 Press    =      8840.4672 
Volume   =        64.6578 
---------------- Step       30 ----- CPU =      0.0012 (sec) ----------------
TotEng   =        70.7175 KinEng   =         0.0000 Temp     =         0.0000 
PotEng   =        70.7175 E_bond   =         2.3049 E_angle  =        30.5489 
E_dihed  =         5.0193 E_impro  =         0.0000 E_vdwl   =        32.8265 
E_coul   =         0.0180 E_long   =         0.0000 Press    =    142193.0979 
Volume   =        69.8112 
---------------- Step       40 ----- CPU =      0.0016 (sec) ----------------
TotEng   =        29.6733 KinEng   =         0.0000 Temp     =         0.0000 
PotEng   =        29.6733 E_bond   =         0.4070 E_angle  =         7.8689 
E_dihed  =         4.8348 E_impro  =         0.0000 E_vdwl   =        16.5352 
E_coul   =         0.0274 E_long   =         0.0000 Press    =     50453.8620 
Volume   =       103.8431 
---------------- Step       50 ----- CPU =      0.0021 (sec) ----------------
TotEng   =        21.8495 KinEng   =         0.0000 Temp     =         0.0000 
PotEng   =        21.8495 E_bond   =         0.2865 E_angle  =         4.2178 
E_dihed  =         4.7806 E_impro  =         0.0000 E_vdwl   =        12.5307 
E_coul   =         0.0340 E_long   =         0.0000 Press    =     35113.9046 
Volume   =       103.8431 
---------------- Step       60 ----- CPU =      0.0025 (sec) ----------------
TotEng   =        17.5931 KinEng   =         0.0000 Temp     =         0.0000 
PotEng   =        17.5931 E_bond   =         0.3094 E_angle  =         2.5367 
E_dihed  =         4.7327 E_impro  =         0.0000 E_vdwl   =         9.9744 
E_coul   =         0.0399 E_long   =         0.0000 Press    =     24298.0247 
Volume   =       103.8431 
---------------- Step       70 ----- CPU =      0.0030 (sec) ----------------
TotEng   =        14.8337 KinEng   =         0.0000 Temp     =         0.0000 
PotEng   =        14.8337 E_bond   =         0.3977 E_angle  =         1.7504 
E_dihed  =         4.6584 E_impro  =         0.0000 E_vdwl   =         7.9814 
E_coul   =         0.0458 E_long   =         0.0000 Press    =     15053.5103 
Volume   =       103.8431 
---------------- Step       80 ----- CPU =      0.0034 (sec) ----------------
TotEng   =        11.8013 KinEng   =         0.0000 Temp     =         0.0000 
PotEng   =        11.8013 E_bond   =         0.5914 E_angle  =         2.1078 
E_dihed  =         4.0452 E_impro  =         0.0000 E_vdwl   =         4.9990 
E_coul   =         0.0579 E_long   =         0.0000 Press    =      -821.0003 
Volume   =       103.8431 
---------------- Step       90 ----- CPU =      0.0039 (sec) ----------------
TotEng   =        11.5590 KinEng   =         0.0000 Temp     =         0.0000 
PotEng   =        11.5590 E_bond   =         0.5718 E_angle  =         2.0861 
E_dihed  =         3.8673 E_impro  =         0.0000 E_vdwl   =         4.9762 
E_coul   =         0.0576 E_long   =         0.0000 Press    =     -1215.7398 
Volume   =       103.8431 
---------------- Step      100 ----- CPU =      0.0044 (sec) ----------------
TotEng   =        11.3778 KinEng   =         0.0000 Temp     =         0.0000 
PotEng   =        11.3778 E_bond   =         0.5844 E_angle  =         2.0698 
E_dihed  =         3.7241 E_impro  =         0.0000 E_vdwl   =         4.9420 
E_coul   =         0.0575 E_long   =         0.0000 Press    =      -844.6000 
Volume   =       103.8431 
---------------- Step      110 ----- CPU =      0.0048 (sec) ----------------
TotEng   =        11.1440 KinEng   =         0.0000 Temp     =         0.0000 
PotEng   =        11.1440 E_bond   =         0.5594 E_angle  =         2.0704 
E_dihed  =         3.5539 E_impro  =         0.0000 E_vdwl   =         4.9031 
E_coul   =         0.0573 E_long   =         0.0000 Press    =      -889.7701 
Volume   =       103.8431 
---------------- Step      120 ----- CPU =      0.0053 (sec) ----------------
TotEng   =        11.0030 KinEng   =         0.0000 Temp     =         0.0000 
PotEng   =        11.0030 E_bond   =         0.5656 E_angle  =         2.0618 
E_dihed  =         3.4407 E_impro  =         0.0000 E_vdwl   =         4.8777 
E_coul   =         0.0572 E_long   =         0.0000 Press    =      -841.6036 
Volume   =       103.8431 
---------------- Step      130 ----- CPU =      0.0057 (sec) ----------------
TotEng   =        10.5302 KinEng   =         0.0000 Temp     =         0.0000 
PotEng   =        10.5302 E_bond   =         0.5116 E_angle  =         2.0954 
E_dihed  =         3.0658 E_impro  =         0.0000 E_vdwl   =         4.8007 
E_coul   =         0.0567 E_long   =         0.0000 Press    =     -1433.3589 
Volume   =       103.8431 
---------------- Step      140 ----- CPU =      0.0062 (sec) ----------------
TotEng   =        10.4132 KinEng   =         0.0000 Temp     =         0.0000 
PotEng   =        10.4132 E_bond   =         0.5374 E_angle  =         2.0634 
E_dihed  =         2.9954 E_impro  =         0.0000 E_vdwl   =         4.7604 
E_coul   =         0.0566 E_long   =         0.0000 Press    =      -787.1126 
Volume   =       103.8431 
---------------- Step      150 ----- CPU =      0.0067 (sec) ----------------
TotEng   =        10.2923 KinEng   =         0.0000 Temp     =         0.0000 
PotEng   =        10.2923 E_bond   =         0.5464 E_angle  =         2.0579 
E_dihed  =         2.8969 E_impro  =         0.0000 E_vdwl   =         4.7346 
E_coul   =         0.0565 E_long   =         0.0000 Press    =      -757.1934 
Volume   =       103.8431 
---------------- Step      160 ----- CPU =      0.0071 (sec) ----------------
TotEng   =         9.9340 KinEng   =         0.0000 Temp     =         0.0000 
PotEng   =         9.9340 E_bond   =         0.5139 E_angle  =         2.0810 
E_dihed  =         2.6353 E_impro  =         0.0000 E_vdwl   =         4.6477 
E_coul   =         0.0560 E_long   =         0.0000 Press    =      -732.5120 
Volume   =       103.8431 
---------------- Step      170 ----- CPU =      0.0076 (sec) ----------------
TotEng   =         9.8951 KinEng   =         0.0000 Temp     =         0.0000 
PotEng   =         9.8951 E_bond   =         0.5111 E_angle  =         2.0804 
E_dihed  =         2.6073 E_impro  =         0.0000 E_vdwl   =         4.6403 
E_coul   =         0.0560 E_long   =         0.0000 Press    =      -705.5512 
Volume   =       103.8431 
---------------- Step      180 ----- CPU =      0.0080 (sec) ----------------
TotEng   =         9.8609 KinEng   =         0.0000 Temp     =         0.0000 
PotEng   =         9.8609 E_bond   =         0.5111 E_angle  =         2.0797 
E_dihed  =         2.5817 E_impro  =         0.0000 E_vdwl   =         4.6324 
E_coul   =         0.0559 E_long   =         0.0000 Press    =      -690.9438 
Volume   =       103.8431 
---------------- Step      190 ----- CPU =      0.0085 (sec) ----------------
TotEng   =         9.8231 KinEng   =         0.0000 Temp     =         0.0000 
PotEng   =         9.8231 E_bond   =         0.5118 E_angle  =         2.0793 
E_dihed  =         2.5528 E_impro  =         0.0000 E_vdwl   =         4.6232 
E_coul   =         0.0559 E_long   =         0.0000 Press    =      -673.3780 
Volume   =       103.8431 
---------------- Step      200 ----- CPU =      0.0090 (sec) ----------------
TotEng   =         9.7536 KinEng   =         0.0000 Temp     =         0.0000 
PotEng   =         9.7536 E_bond   =         0.5198 E_angle  =         2.0772 
E_dihed  =         2.4956 E_impro  =         0.0000 E_vdwl   =         4.6051 
E_coul   =         0.0559 E_long   =         0.0000 Press    =      -635.6090 
Volume   =       103.8431 
---------------- Step      210 ----- CPU =      0.0094 (sec) ----------------
TotEng   =         9.3733 KinEng   =         0.0000 Temp     =         0.0000 
PotEng   =         9.3733 E_bond   =         0.4880 E_angle  =         2.1207 
E_dihed  =         2.2140 E_impro  =         0.0000 E_vdwl   =         4.4953 
E_coul   =         0.0553 E_long   =         0.0000 Press    =      -504.8018 
Volume   =       103.8431 
---------------- Step      220 ----- CPU =      0.0098 (sec) ----------------
TotEng   =         9.3532 KinEng   =         0.0000 Temp     =         0.0000 
PotEng   =         9.3532 E_bond   =         0.4875 E_angle  =         2.1236 
E_dihed  =         2.1978 E_impro  =         0.0000 E_vdwl   =         4.4890 
E_coul   =         0.0553 E_long   =         0.0000 Press    =      -486.3022 
Volume   =       103.8431 
---------------- Step      230 ----- CPU =      0.0103 (sec) ----------------
TotEng   =         9.1788 KinEng   =         0.0000 Temp     =         0.0000 
PotEng   =         9.1788 E_bond   =         0.4545 E_angle  =         2.1809 
E_dihed  =         2.0518 E_impro  =         0.0000 E_vdwl   =         4.4365 
E_coul   =         0.0551 E_long   =         0.0000 Press    =       737.8492 
Volume   =       103.8431 
---------------- Step      240 ----- CPU =      0.0108 (sec) ----------------
TotEng   =         9.1603 KinEng   =         0.0000 Temp     =         0.0000 
PotEng   =         9.1603 E_bond   =         0.4711 E_angle  =         2.1631 
E_dihed  =         2.0433 E_impro  =         0.0000 E_vdwl   =         4.4277 
E_coul   =         0.0551 E_long   =         0.0000 Press    =      -400.9837 
Volume   =       103.8431 
---------------- Step      250 ----- CPU =      0.0112 (sec) ----------------
TotEng   =         9.1498 KinEng   =         0.0000 Temp     =         0.0000 
PotEng   =         9.1498 E_bond   =         0.4710 E_angle  =         2.1643 
E_dihed  =         2.0349 E_impro  =         0.0000 E_vdwl   =         4.4244 
E_coul   =         0.0551 E_long   =         0.0000 Press    =      -399.9878 
Volume   =       103.8431 
---------------- Step      260 ----- CPU =      0.0117 (sec) ----------------
TotEng   =         9.1369 KinEng   =         0.0000 Temp     =         0.0000 
PotEng   =         9.1369 E_bond   =         0.4708 E_angle  =         2.1661 
E_dihed  =         2.0244 E_impro  =         0.0000 E_vdwl   =         4.4205 
E_coul   =         0.0551 E_long   =         0.0000 Press    =      -395.5182 
Volume   =       103.8431 
---------------- Step      270 ----- CPU =      0.0121 (sec) ----------------
TotEng   =         9.1052 KinEng   =         0.0000 Temp     =         0.0000 
PotEng   =         9.1052 E_bond   =         0.4700 E_angle  =         2.1714 
E_dihed  =         1.9981 E_impro  =         0.0000 E_vdwl   =         4.4106 
E_coul   =         0.0551 E_long   =         0.0000 Press    =      -386.2726 
Volume   =       103.8431 
---------------- Step      277 ----- CPU =      0.0125 (sec) ----------------
TotEng   =         8.7849 KinEng   =         0.0000 Temp     =         0.0000 
PotEng   =         8.7849 E_bond   =         0.4651 E_angle  =         2.2589 
E_dihed  =         1.7021 E_impro  =         0.0000 E_vdwl   =         4.3035 
E_coul   =         0.0552 E_long   =         0.0000 Press    =      -576.6794 
Volume   =       103.8431 
Loop time of 0.0125189 on 1 procs for 277 steps with 18 atoms

Minimization stats:
  Stopping criterion = energy tolerance
  Energy initial, next-to-last, final = 
         53257862703.7      8.78566700743      8.78485092767
  Force two-norm initial, final = 3.13991e+12 1.55243
  Force max component initial, final = 1.85007e+12 0.676173
  Final line search alpha, max atom move = 0.332075 0.22454
  Iterations, force evaluations = 277 537

Pair  time (%) = 0.0052948 (42.2945)
Bond  time (%) = 0.00576162 (46.0235)
Neigh time (%) = 2.90871e-05 (0.232346)
Comm  time (%) = 8.58307e-05 (0.68561)
Outpt time (%) = 0.000659227 (5.26586)
Other time (%) = 0.000688314 (5.49821)

Nlocal:    18 ave 18 max 18 min
Histogram: 1 0 0 0 0 0 0 0 0 0
Nghost:    0 ave 0 max 0 min
Histogram: 1 0 0 0 0 0 0 0 0 0
Neighs:    106 ave 106 max 106 min
Histogram: 1 0 0 0 0 0 0 0 0 0

Total # of neighbors = 106
Ave neighs/atom = 5.88889
Ave special neighs/atom = 5.22222
Neighbor list builds = 2
Dangerous builds = 0
min_style       cg
minimize        1.0e-4 1.0e-4 500 5000
WARNING: Resetting reneighboring criteria during minimization (../min.cpp:168)
Memory usage per processor = 1.0478 Mbytes
---------------- Step      277 ----- CPU =      0.0000 (sec) ----------------
TotEng   =         8.7849 KinEng   =         0.0000 Temp     =         0.0000 
PotEng   =         8.7849 E_bond   =         0.4651 E_angle  =         2.2589 
E_dihed  =         1.7021 E_impro  =         0.0000 E_vdwl   =         4.3035 
E_coul   =         0.0552 E_long   =         0.0000 Press    =      -719.2155 
Volume   =        83.2632 
---------------- Step      278 ----- CPU =      0.0001 (sec) ----------------
TotEng   =         8.7841 KinEng   =         0.0000 Temp     =         0.0000 
PotEng   =         8.7841 E_bond   =         0.4664 E_angle  =         2.2553 
E_dihed  =         1.7023 E_impro  =         0.0000 E_vdwl   =         4.3048 
E_coul   =         0.0553 E_long   =         0.0000 Press    =      -661.7667 
Volume   =        83.2632 
Loop time of 0.000113964 on 1 procs for 1 steps with 18 atoms

Minimization stats:
  Stopping criterion = energy tolerance
  Energy initial, next-to-last, final = 
         8.78485092767      8.78485092767      8.78409491799
  Force two-norm initial, final = 1.55243 1.09805
  Force max component initial, final = 0.676173 0.286945
  Final line search alpha, max atom move = 0.147891 0.0424366
  Iterations, force evaluations = 1 2

Pair  time (%) = 3.00407e-05 (26.3598)
Bond  time (%) = 3.29018e-05 (28.8703)
Neigh time (%) = 0 (0)
Comm  time (%) = 0 (0)
Outpt time (%) = 0 (0)
Other time (%) = 5.10216e-05 (44.7699)

Nlocal:    18 ave 18 max 18 min
Histogram: 1 0 0 0 0 0 0 0 0 0
Nghost:    0 ave 0 max 0 min
Histogram: 1 0 0 0 0 0 0 0 0 0
Neighs:    106 ave 106 max 106 min
Histogram: 1 0 0 0 0 0 0 0 0 0

Total # of neighbors = 106
Ave neighs/atom = 5.88889
Ave special neighs/atom = 5.22222
Neighbor list builds = 0
Dangerous builds = 0
#now minimize the entire system
minimize        1.0e-4 1.0e-4 500 5000
WARNING: Resetting reneighboring criteria during minimization (../min.cpp:168)
Memory usage per processor = 1.0478 Mbytes
---------------- Step      278 ----- CPU =      0.0000 (sec) ----------------
TotEng   =         8.7841 KinEng   =         0.0000 Temp     =         0.0000 
PotEng   =         8.7841 E_bond   =         0.4664 E_angle  =         2.2553 
E_dihed  =         1.7023 E_impro  =         0.0000 E_vdwl   =         4.3048 
E_coul   =         0.0553 E_long   =         0.0000 Press    =      -661.8339 
Volume   =        83.2547 
---------------- Step      279 ----- CPU =      0.0001 (sec) ----------------
TotEng   =         8.7834 KinEng   =         0.0000 Temp     =         0.0000 
PotEng   =         8.7834 E_bond   =         0.4634 E_angle  =         2.2588 
E_dihed  =         1.7012 E_impro  =         0.0000 E_vdwl   =         4.3048 
E_coul   =         0.0553 E_long   =         0.0000 Press    =      -608.4469 
Volume   =        83.2547 
Loop time of 0.000115871 on 1 procs for 1 steps with 18 atoms

Minimization stats:
  Stopping criterion = energy tolerance
  Energy initial, next-to-last, final = 
         8.78409491799      8.78409491799      8.78338370571
  Force two-norm initial, final = 1.09805 1.44777
  Force max component initial, final = 0.286945 0.626169
  Final line search alpha, max atom move = 0.348499 0.218219
  Iterations, force evaluations = 1 2

Pair  time (%) = 2.98023e-05 (25.7202)
Bond  time (%) = 3.31402e-05 (28.6008)
Neigh time (%) = 0 (0)
Comm  time (%) = 1.19209e-06 (1.02881)
Outpt time (%) = 0 (0)
Other time (%) = 5.17368e-05 (44.6502)

Nlocal:    18 ave 18 max 18 min
Histogram: 1 0 0 0 0 0 0 0 0 0
Nghost:    0 ave 0 max 0 min
Histogram: 1 0 0 0 0 0 0 0 0 0
Neighs:    106 ave 106 max 106 min
Histogram: 1 0 0 0 0 0 0 0 0 0

Total # of neighbors = 106
Ave neighs/atom = 5.88889
Ave special neighs/atom = 5.22222
Neighbor list builds = 0
Dangerous builds = 0
undump          1

Please see the log.cite file for references relevant to this simulation

