ITEM: TIMESTEP
0
ITEM: NUMBER OF ATOMS
58
ITEM: BOX BOUNDS ss ss ss
-6.71369 5.6239
-2.83813 3.94649
-2.76017 5.24518
ITEM: ATOMS id type xs ys zs ix iy iz
23 2 0.452596 0.903638 0.0950552 0 0 0
29 4 0.460695 0.0849967 0.282915 0 0 0
31 1 0.455812 0.246592 0.506495 0 0 0
32 2 0.391658 0.03032 0.33636 0 0 0
33 3 0.431594 0.166497 0.116906 0 0 0
34 3 0.331103 0.302969 0.120002 0 0 0
36 1 0.415383 0.0426494 0.0334826 0 0 0
37 4 0.230773 0.19005 0.142606 0 0 0
38 1 0.325474 0.381802 0.0014253 0 0 0
39 1 0.337852 0.411579 0.220042 0 0 0
40 2 0.234008 0.126541 0.25822 0 0 0
48 2 0.475463 0.227432 0.748486 0 0 0
50 3 0.269658 0.254244 0.148153 0 0 0
51 3 0.16439 0.371969 0.137951 0 0 0
52 1 0.274877 0.14643 0.0461879 0 0 0
53 1 0.340382 0.351354 0.13872 0 0 0
54 4 0.0705762 0.241369 0.159847 0 0 0
55 1 0.163248 0.456727 0.0199554 0 0 0
56 1 0.162368 0.4807 0.239424 0 0 0
57 2 0.0667278 0.145037 0.0621884 0 0 0
58 2 0.000810531 0.321566 0.154863 0 0 0
1 3 0.961099 0.85542 0.328799 0 0 0
2 3 0.838028 0.856825 0.362573 0 0 0
3 1 0.976594 0.86674 0.194898 0 0 0
4 1 0.997688 0.71999 0.37587 0 0 0
5 1 0.999189 0.980481 0.391419 0 0 0
6 4 0.782184 0.69036 0.275955 0 0 0
7 1 0.80615 0.998526 0.320023 0 0 0
8 1 0.824178 0.850064 0.497033 0 0 0
9 3 0.779438 0.490845 0.355726 0 0 0
10 3 0.71182 0.478739 0.519005 0 0 0
11 1 0.748747 0.384561 0.26532 0 0 0
12 1 0.86238 0.445556 0.384027 0 0 0
13 4 0.688586 0.271603 0.574226 0 0 0
14 1 0.63599 0.559045 0.506003 0 0 0
15 1 0.757718 0.555641 0.615737 0 0 0
16 3 0.706482 0.735599 0.135414 0 0 0
17 3 0.596548 0.822236 0.192228 0 0 0
18 1 0.691449 0.602637 0.0618974 0 0 0
19 1 0.745742 0.840778 0.0514581 0 0 0
20 4 0.524185 0.850677 0.0490035 0 0 0
21 1 0.608816 0.964315 0.253194 0 0 0
22 1 0.556618 0.723112 0.279589 0 0 0
24 2 0.508212 0.713929 0.00124916 0 0 0
25 3 0.62025 0.137767 0.468162 0 0 0
26 3 0.511692 0.22366 0.402952 0 0 0
27 1 0.602007 0.00147392 0.535366 0 0 0
28 1 0.669102 0.0942661 0.360634 0 0 0
30 1 0.526406 0.366121 0.3445 0 0 0
35 1 0.500849 0.246421 0.0651177 0 0 0
41 3 0.699978 0.227432 0.756359 0 0 0
42 3 0.610648 0.316537 0.869392 0 0 0
43 1 0.703919 0.0682986 0.776678 0 0 0
44 1 0.778162 0.285071 0.798164 0 0 0
45 4 0.509137 0.204592 0.862997 0 0 0
46 1 0.594421 0.469313 0.83486 0 0 0
47 1 0.638651 0.314589 0.998751 0 0 0
49 2 0.52895 0.0585073 0.869944 0 0 0
ITEM: TIMESTEP
25
ITEM: NUMBER OF ATOMS
58
ITEM: BOX BOUNDS ss ss ss
-6.71417 5.62391
-2.83811 3.94649
-3.01136 5.2452
ITEM: ATOMS id type xs ys zs ix iy iz
23 2 0.452621 0.903689 0.122562 0 0 0
29 4 0.465157 0.0779337 0.309652 0 0 0
31 1 0.456078 0.246419 0.521724 0 0 0
32 2 0.39219 0.0301616 0.356288 0 0 0
33 3 0.447431 0.1447 0.145933 0 0 0
34 3 0.346915 0.239112 0.178044 0 0 0
36 1 0.420031 0.0354628 0.0598082 0 0 0
37 4 0.253295 0.111433 0.183126 0 0 0
38 1 0.353787 0.341631 -0.0211823 0 0 0
39 1 0.346797 0.385402 0.327329 0 0 0
40 2 0.230405 0.117966 0.292174 0 0 0
48 2 0.475535 0.227328 0.756049 0 0 0
50 3 0.245458 0.304873 0.146042 0 0 0
51 3 0.145364 0.39036 0.164166 0 0 0
52 1 0.229306 0.131394 0.039559 0 0 0
53 1 0.353767 0.529896 0.135124 0 0 0
54 4 0.060142 0.244901 0.186693 0 0 0
55 1 0.15762 0.460031 0.0485111 0 0 0
56 1 0.159627 0.48531 0.264933 0 0 0
57 2 0.0650047 0.147192 0.0915256 0 0 0
58 2 -0.00555759 0.32708 0.178433 0 0 0
1 3 0.961096 0.855385 0.349204 0 0 0
2 3 0.838035 0.856862 0.381961 0 0 0
3 1 0.976586 0.866671 0.219372 0 0 0
4 1 0.997678 0.719965 0.394862 0 0 0
5 1 0.999202 0.98046 0.409892 0 0 0
6 4 0.782174 0.690326 0.298025 0 0 0
7 1 0.806168 0.998537 0.340708 0 0 0
8 1 0.82419 0.850087 0.512339 0 0 0
9 3 0.77944 0.490908 0.375297 0 0 0
10 3 0.711827 0.478716 0.533698 0 0 0
11 1 0.748726 0.384576 0.287683 0 0 0
12 1 0.862373 0.445555 0.402754 0 0 0
13 4 0.688667 0.271711 0.587261 0 0 0
14 1 0.636008 0.559085 0.521072 0 0 0
15 1 0.757747 0.555639 0.627447 0 0 0
16 3 0.706471 0.735643 0.161709 0 0 0
17 3 0.596555 0.822231 0.216805 0 0 0
18 1 0.691462 0.602657 0.0904343 0 0 0
19 1 0.745742 0.840807 0.0803381 0 0 0
20 4 0.524222 0.850794 0.0779081 0 0 0
21 1 0.608809 0.964293 0.275959 0 0 0
22 1 0.556613 0.723083 0.301471 0 0 0
24 2 0.508267 0.71406 0.0315537 0 0 0
25 3 0.620619 0.137762 0.484686 0 0 0
26 3 0.512955 0.223531 0.422443 0 0 0
27 1 0.602041 0.00150239 0.549588 0 0 0
28 1 0.669207 0.0942697 0.380153 0 0 0
30 1 0.526734 0.366027 0.364386 0 0 0
35 1 0.503984 0.24857 0.0923414 0 0 0
41 3 0.699982 0.227394 0.76381 0 0 0
42 3 0.610658 0.316507 0.873385 0 0 0
43 1 0.70392 0.0682734 0.783467 0 0 0
44 1 0.778169 0.285032 0.804319 0 0 0
45 4 0.509134 0.204604 0.867145 0 0 0
46 1 0.594457 0.4693 0.839939 0 0 0
47 1 0.638657 0.314499 0.99882 0 0 0
49 2 0.528917 0.0585145 0.874052 0 0 0
ITEM: TIMESTEP
50
ITEM: NUMBER OF ATOMS
58
ITEM: BOX BOUNDS ss ss ss
-6.8355 5.6242
-2.83889 3.94667
-2.97167 5.24573
ITEM: ATOMS id type xs ys zs ix iy iz
23 2 0.457919 0.9041 0.118125 0 0 0
29 4 0.484732 0.0461968 0.325239 0 0 0
31 1 0.468811 0.236553 0.527751 0 0 0
32 2 0.407344 0.0206054 0.360556 0 0 0
33 3 0.479255 0.104978 0.155999 0 0 0
34 3 0.388765 0.252254 0.153808 0 0 0
36 1 0.45723 -0.0128597 0.0711642 0 0 0
37 4 0.279907 0.173006 0.171561 0 0 0
38 1 0.405368 0.319373 0.0356502 0 0 0
39 1 0.392932 0.364964 0.248701 0 0 0
40 2 0.257387 0.153264 0.292188 0 0 0
48 2 0.481101 0.226748 0.755315 0 0 0
50 3 0.221513 0.332965 0.0889569 0 0 0
51 3 0.120337 0.412392 0.162741 0 0 0
52 1 0.207547 0.268034 -0.0294566 0 0 0
53 1 0.262725 0.47665 0.0744495 0 0 0
54 4 0.0504428 0.247974 0.190493 0 0 0
55 1 0.0900352 0.507405 0.0654675 0 0 0
56 1 0.138501 0.497251 0.27255 0 0 0
57 2 0.0637007 0.154875 0.0943049 0 0 0
58 2 -0.0227786 0.31008 0.173208 0 0 0
1 3 0.961456 0.855159 0.345874 0 0 0
2 3 0.839639 0.857184 0.378937 0 0 0
3 1 0.976734 0.86603 0.215387 0 0 0
4 1 0.997584 0.719769 0.391964 0 0 0
5 1 0.999333 0.980258 0.406593 0 0 0
6 4 0.784126 0.690642 0.294899 0 0 0
7 1 0.808133 0.998798 0.337389 0 0 0
8 1 0.825992 0.850628 0.50993 0 0 0
9 3 0.781726 0.491514 0.372863 0 0 0
10 3 0.715987 0.479164 0.533128 0 0 0
11 1 0.750741 0.385185 0.285004 0 0 0
12 1 0.863928 0.445854 0.399307 0 0 0
13 4 0.697104 0.272354 0.590763 0 0 0
14 1 0.640175 0.557803 0.520718 0 0 0
15 1 0.761286 0.558312 0.62648 0 0 0
16 3 0.709248 0.735832 0.157783 0 0 0
17 3 0.600299 0.82201 0.213096 0 0 0
18 1 0.694497 0.602874 0.0860646 0 0 0
19 1 0.748083 0.841129 0.0760924 0 0 0
20 4 0.528864 0.851268 0.0733863 0 0 0
21 1 0.61236 0.963843 0.272959 0 0 0
22 1 0.560703 0.722282 0.297763 0 0 0
24 2 0.513098 0.714822 0.0262848 0 0 0
25 3 0.633408 0.130109 0.490117 0 0 0
26 3 0.526923 0.207691 0.432045 0 0 0
27 1 0.615957 -0.00554313 0.556405 0 0 0
28 1 0.681263 0.0906703 0.383993 0 0 0
30 1 0.541803 0.347346 0.368872 0 0 0
35 1 0.551682 0.180668 0.112272 0 0 0
41 3 0.704836 0.228471 0.766579 0 0 0
42 3 0.614602 0.316988 0.874226 0 0 0
43 1 0.708284 0.0693277 0.786705 0 0 0
44 1 0.781852 0.286182 0.808281 0 0 0
45 4 0.51416 0.204742 0.867014 0 0 0
46 1 0.598686 0.469496 0.839873 0 0 0
47 1 0.641594 0.314921 1.00028 0 0 0
49 2 0.533334 0.0586012 0.874865 0 0 0
ITEM: TIMESTEP
75
ITEM: NUMBER OF ATOMS
58
ITEM: BOX BOUNDS ss ss ss
-7.16923 5.62638
-2.96941 3.9495
-3.28317 5.26767
ITEM: ATOMS id type xs ys zs ix iy iz
23 2 0.472003 0.90586 0.149859 0 0 0
29 4 0.498232 0.0604348 0.353867 0 0 0
31 1 0.487325 0.242504 0.549031 0 0 0
32 2 0.423089 0.0351966 0.388826 0 0 0
33 3 0.492895 0.117371 0.188789 0 0 0
34 3 0.410052 0.275026 0.170574 0 0 0
36 1 0.473269 -0.00659397 0.115685 0 0 0
37 4 0.300829 0.208655 0.184143 0 0 0
38 1 0.426006 0.338129 0.0560649 0 0 0
39 1 0.417243 0.389741 0.25757 0 0 0
40 2 0.28185 0.195576 0.300757 0 0 0
48 2 0.495149 0.241594 0.764586 0 0 0
50 3 0.235094 0.357677 0.107174 0 0 0
51 3 0.136317 0.421632 0.192418 0 0 0
52 1 0.215879 0.297422 -0.00694223 0 0 0
53 1 0.275894 0.495028 0.0876605 0 0 0
54 4 0.0678952 0.257575 0.221134 0 0 0
55 1 0.0966653 0.523164 0.114603 0 0 0
56 1 0.155407 0.495873 0.301626 0 0 0
57 2 0.0797804 0.164898 0.129833 0 0 0
58 2 -0.00589684 0.311254 0.208461 0 0 0
1 3 0.962327 0.857358 0.368636 0 0 0
2 3 0.843686 0.859864 0.400689 0 0 0
3 1 0.977082 0.867523 0.243176 0 0 0
4 1 0.99739 0.724612 0.413155 0 0 0
5 1 0.999389 0.980083 0.426621 0 0 0
6 4 0.789201 0.696435 0.321062 0 0 0
7 1 0.813145 0.99874 0.360453 0 0 0
8 1 0.830591 0.854211 0.526671 0 0 0
9 3 0.787459 0.500735 0.395591 0 0 0
10 3 0.724894 0.487553 0.551476 0 0 0
11 1 0.756503 0.396879 0.311846 0 0 0
12 1 0.867765 0.456202 0.419392 0 0 0
13 4 0.708492 0.283541 0.607236 0 0 0
14 1 0.650113 0.561728 0.539651 0 0 0
15 1 0.76873 0.567381 0.639504 0 0 0
16 3 0.716621 0.740385 0.188522 0 0 0
17 3 0.61046 0.824423 0.241528 0 0 0
18 1 0.702554 0.609999 0.119555 0 0 0
19 1 0.754462 0.84388 0.110193 0 0 0
20 4 0.54113 0.854033 0.107042 0 0 0
21 1 0.622041 0.963248 0.299574 0 0 0
22 1 0.571914 0.725972 0.322482 0 0 0
24 2 0.525775 0.720575 0.0611294 0 0 0
25 3 0.648406 0.141756 0.512527 0 0 0
26 3 0.54207 0.214106 0.454699 0 0 0
27 1 0.633878 0.0074052 0.575974 0 0 0
28 1 0.695409 0.103478 0.410441 0 0 0
30 1 0.555911 0.350599 0.394363 0 0 0
35 1 0.568552 0.173848 0.149417 0 0 0
41 3 0.714603 0.244793 0.778942 0 0 0
42 3 0.625273 0.330644 0.878728 0 0 0
43 1 0.718867 0.0890973 0.799831 0 0 0
44 1 0.7888 0.303493 0.819713 0 0 0
45 4 0.527606 0.219552 0.871562 0 0 0
46 1 0.609406 0.479829 0.844821 0 0 0
47 1 0.65017 0.330181 1.00084 0 0 0
49 2 0.546342 0.076264 0.878778 0 0 0
ITEM: TIMESTEP
100
ITEM: NUMBER OF ATOMS
58
ITEM: BOX BOUNDS ss ss ss
-7.16923 5.62638
-2.96941 3.9495
-3.28317 5.26767
ITEM: ATOMS id type xs ys zs ix iy iz
23 2 0.472057 0.906019 0.149855 0 0 0
29 4 0.49703 0.0604575 0.35457 0 0 0
31 1 0.490048 0.237453 0.552175 0 0 0
32 2 0.422193 0.0364669 0.391386 0 0 0
33 3 0.491754 0.116102 0.188711 0 0 0
34 3 0.411777 0.279551 0.161513 0 0 0
36 1 0.470498 -0.0100365 0.119028 0 0 0
37 4 0.30135 0.21901 0.175487 0 0 0
38 1 0.427941 0.336499 0.0449735 0 0 0
39 1 0.422195 0.397589 0.244681 0 0 0
40 2 0.283436 0.209247 0.292193 0 0 0
48 2 0.495604 0.242156 0.767365 0 0 0
50 3 0.23211 0.364336 0.10007 0 0 0
51 3 0.133579 0.419758 0.19222 0 0 0
52 1 0.210007 0.304122 -0.0130561 0 0 0
53 1 0.27229 0.501472 0.0780956 0 0 0
54 4 0.0661844 0.253099 0.221235 0 0 0
55 1 0.0901685 0.524285 0.121785 0 0 0
56 1 0.154408 0.48833 0.303025 0 0 0
57 2 0.0756594 0.161588 0.128625 0 0 0
58 2 -0.00866904 0.304234 0.214732 0 0 0
1 3 0.962253 0.857021 0.368482 0 0 0
2 3 0.843737 0.85996 0.401179 0 0 0
3 1 0.976827 0.866668 0.242953 0 0 0
4 1 0.997326 0.724356 0.413218 0 0 0
5 1 0.999565 0.979865 0.426008 0 0 0
6 4 0.788596 0.696583 0.322277 0 0 0
7 1 0.813224 0.998815 0.360486 0 0 0
8 1 0.830829 0.855111 0.527123 0 0 0
9 3 0.787543 0.500206 0.396811 0 0 0
10 3 0.726011 0.486128 0.552876 0 0 0
11 1 0.756003 0.396769 0.312988 0 0 0
12 1 0.868076 0.455924 0.418803 0 0 0
13 4 0.710858 0.282021 0.610359 0 0 0
14 1 0.650718 0.558493 0.542168 0 0 0
15 1 0.769937 0.567153 0.640608 0 0 0
16 3 0.716658 0.739932 0.189397 0 0 0
17 3 0.610204 0.823722 0.241953 0 0 0
18 1 0.702761 0.609608 0.120209 0 0 0
19 1 0.75447 0.843706 0.111135 0 0 0
20 4 0.541263 0.854157 0.107265 0 0 0
21 1 0.62171 0.962178 0.300573 0 0 0
22 1 0.571666 0.724671 0.322487 0 0 0
24 2 0.525875 0.721049 0.0606953 0 0 0
25 3 0.650669 0.139214 0.514185 0 0 0
26 3 0.543871 0.21054 0.45655 0 0 0
27 1 0.637836 0.00464727 0.578385 0 0 0
28 1 0.698233 0.101475 0.412825 0 0 0
30 1 0.556065 0.347379 0.396348 0 0 0
35 1 0.568951 0.164253 0.149333 0 0 0
41 3 0.716064 0.246091 0.781779 0 0 0
42 3 0.625716 0.331777 0.881105 0 0 0
43 1 0.721225 0.0909625 0.805137 0 0 0
44 1 0.789537 0.307238 0.823952 0 0 0
45 4 0.528638 0.219487 0.873855 0 0 0
46 1 0.609603 0.480365 0.84591 0 0 0
47 1 0.650084 0.332871 1.00324 0 0 0
49 2 0.547772 0.076287 0.880213 0 0 0
ITEM: TIMESTEP
125
ITEM: NUMBER OF ATOMS
58
ITEM: BOX BOUNDS ss ss ss
-7.16923 5.62638
-2.96941 3.9495
-3.28317 5.26767
ITEM: ATOMS id type xs ys zs ix iy iz
23 2 0.472122 0.906052 0.149881 0 0 0
29 4 0.496014 0.0615345 0.354683 0 0 0
31 1 0.491403 0.234935 0.553885 0 0 0
32 2 0.421155 0.0390009 0.392147 0 0 0
33 3 0.490688 0.115832 0.187925 0 0 0
34 3 0.41255 0.28159 0.155881 0 0 0
36 1 0.468144 -0.0112674 0.120343 0 0 0
37 4 0.301464 0.224488 0.171328 0 0 0
38 1 0.428419 0.333281 0.0375432 0 0 0
39 1 0.425106 0.402396 0.2357 0 0 0
40 2 0.284477 0.217129 0.288262 0 0 0
48 2 0.495918 0.242461 0.769657 0 0 0
50 3 0.23068 0.367716 0.0965259 0 0 0
51 3 0.132425 0.418325 0.192073 0 0 0
52 1 0.207404 0.307553 -0.0161911 0 0 0
53 1 0.270105 0.505351 0.0737385 0 0 0
54 4 0.066224 0.249547 0.220864 0 0 0
55 1 0.0871291 0.52392 0.125468 0 0 0
56 1 0.15426 0.483876 0.303588 0 0 0
57 2 0.0734367 0.160752 0.126106 0 0 0
58 2 -0.00908513 0.2993 0.220274 0 0 0
1 3 0.962197 0.856579 0.3684 0 0 0
2 3 0.843711 0.860052 0.401583 0 0 0
3 1 0.9765 0.865776 0.242763 0 0 0
4 1 0.997271 0.724071 0.413279 0 0 0
5 1 0.999693 0.979603 0.425432 0 0 0
6 4 0.788277 0.696152 0.323657 0 0 0
7 1 0.813265 0.998675 0.360817 0 0 0
8 1 0.831066 0.855529 0.527698 0 0 0
9 3 0.787661 0.500145 0.397115 0 0 0
10 3 0.726655 0.484966 0.554436 0 0 0
11 1 0.755679 0.396606 0.313872 0 0 0
12 1 0.868276 0.455543 0.418564 0 0 0
13 4 0.711884 0.281392 0.611294 0 0 0
14 1 0.651175 0.556949 0.543862 0 0 0
15 1 0.770811 0.5667 0.641265 0 0 0
16 3 0.716479 0.739731 0.189957 0 0 0
17 3 0.610099 0.822942 0.242439 0 0 0
18 1 0.702928 0.609194 0.120875 0 0 0
19 1 0.754464 0.843423 0.11205 0 0 0
20 4 0.541346 0.85421 0.107458 0 0 0
21 1 0.621395 0.9612 0.301542 0 0 0
22 1 0.571373 0.723532 0.322497 0 0 0
24 2 0.526002 0.721367 0.0604064 0 0 0
25 3 0.65183 0.138259 0.515396 0 0 0
26 3 0.544409 0.20922 0.457065 0 0 0
27 1 0.639496 0.00364908 0.579476 0 0 0
28 1 0.699452 0.100655 0.413894 0 0 0
30 1 0.555762 0.346471 0.397406 0 0 0
35 1 0.568563 0.159379 0.14822 0 0 0
41 3 0.716782 0.246914 0.784111 0 0 0
42 3 0.626299 0.332583 0.882347 0 0 0
43 1 0.722617 0.0921948 0.808046 0 0 0
44 1 0.789963 0.309506 0.826035 0 0 0
45 4 0.529416 0.219348 0.875755 0 0 0
46 1 0.609694 0.480795 0.846638 0 0 0
47 1 0.650392 0.334971 1.00483 0 0 0
49 2 0.549073 0.0763677 0.88138 0 0 0
ITEM: TIMESTEP
150
ITEM: NUMBER OF ATOMS
58
ITEM: BOX BOUNDS ss ss ss
-7.16923 5.62638
-2.96941 3.9495
-3.28317 5.26767
ITEM: ATOMS id type xs ys zs ix iy iz
23 2 0.472159 0.906021 0.149944 0 0 0
29 4 0.495055 0.0628043 0.354551 0 0 0
31 1 0.492052 0.233871 0.55489 0 0 0
32 2 0.420122 0.041821 0.392272 0 0 0
33 3 0.489968 0.115667 0.187238 0 0 0
34 3 0.412982 0.28263 0.151674 0 0 0
36 1 0.466482 -0.0120591 0.121118 0 0 0
37 4 0.301607 0.228002 0.169075 0 0 0
38 1 0.428407 0.329786 0.0319387 0 0 0
39 1 0.427217 0.405657 0.22861 0 0 0
40 2 0.285494 0.222914 0.286257 0 0 0
48 2 0.496194 0.242478 0.771492 0 0 0
50 3 0.229905 0.369923 0.0945085 0 0 0
51 3 0.13183 0.417079 0.191933 0 0 0
52 1 0.206177 0.309837 -0.0180872 0 0 0
53 1 0.268719 0.508084 0.0715984 0 0 0
54 4 0.0667716 0.246474 0.220287 0 0 0
55 1 0.0852813 0.522998 0.127633 0 0 0
56 1 0.154156 0.480857 0.30389 0 0 0
57 2 0.0717408 0.161014 0.123218 0 0 0
58 2 -0.00869244 0.295086 0.22543 0 0 0
1 3 0.962125 0.856195 0.36831 0 0 0
2 3 0.843726 0.859778 0.402114 0 0 0
3 1 0.976168 0.864873 0.242597 0 0 0
4 1 0.997237 0.723743 0.413352 0 0 0
5 1 0.999804 0.979316 0.424878 0 0 0
6 4 0.787947 0.696375 0.324367 0 0 0
7 1 0.813247 0.998581 0.361244 0 0 0
8 1 0.831318 0.855679 0.528218 0 0 0
9 3 0.787664 0.499533 0.397942 0 0 0
10 3 0.727144 0.484759 0.554952 0 0 0
11 1 0.755451 0.396492 0.314489 0 0 0
12 1 0.868385 0.45525 0.418438 0 0 0
13 4 0.71238 0.280748 0.612449 0 0 0
14 1 0.651552 0.556219 0.545138 0 0 0
15 1 0.771486 0.56625 0.641849 0 0 0
16 3 0.716506 0.739255 0.190714 0 0 0
17 3 0.609864 0.822364 0.242864 0 0 0
18 1 0.703036 0.608881 0.121439 0 0 0
19 1 0.754434 0.843264 0.112806 0 0 0
20 4 0.54147 0.854215 0.107719 0 0 0
21 1 0.621101 0.960245 0.302482 0 0 0
22 1 0.571097 0.722444 0.322496 0 0 0
24 2 0.526134 0.721622 0.0601748 0 0 0
25 3 0.652173 0.138088 0.515788 0 0 0
26 3 0.544615 0.208921 0.457387 0 0 0
27 1 0.640138 0.00333595 0.580131 0 0 0
28 1 0.699912 0.100357 0.414536 0 0 0
30 1 0.55534 0.34652 0.397952 0 0 0
35 1 0.56819 0.156234 0.147182 0 0 0
41 3 0.717327 0.247511 0.784963 0 0 0
42 3 0.626668 0.333238 0.883469 0 0 0
43 1 0.723465 0.0929025 0.809801 0 0 0
44 1 0.790298 0.310832 0.827177 0 0 0
45 4 0.53013 0.219285 0.877306 0 0 0
46 1 0.609802 0.481117 0.847092 0 0 0
47 1 0.650847 0.336617 1.0058 0 0 0
49 2 0.550185 0.0764392 0.882455 0 0 0
ITEM: TIMESTEP
175
ITEM: NUMBER OF ATOMS
58
ITEM: BOX BOUNDS ss ss ss
-7.16923 5.62638
-2.96941 3.9495
-3.28317 5.26767
ITEM: ATOMS id type xs ys zs ix iy iz
23 2 0.472186 0.905934 0.150043 0 0 0
29 4 0.494108 0.0642401 0.35448 0 0 0
31 1 0.492308 0.233789 0.555544 0 0 0
32 2 0.419022 0.044904 0.39211 0 0 0
33 3 0.489453 0.115519 0.1866 0 0 0
34 3 0.413371 0.283088 0.148111 0 0 0
36 1 0.465313 -0.0128042 0.12175 0 0 0
37 4 0.30181 0.230696 0.167778 0 0 0
38 1 0.428195 0.326016 0.0271306 0 0 0
39 1 0.429058 0.408137 0.222248 0 0 0
40 2 0.286654 0.228007 0.285234 0 0 0
48 2 0.496508 0.242239 0.77304 0 0 0
50 3 0.229519 0.371621 0.0932812 0 0 0
51 3 0.131446 0.415856 0.191782 0 0 0
52 1 0.205704 0.311735 -0.0193896 0 0 0
53 1 0.267788 0.510356 0.0706664 0 0 0
54 4 0.0675422 0.243519 0.219528 0 0 0
55 1 0.0839272 0.521693 0.129013 0 0 0
56 1 0.153935 0.478464 0.304092 0 0 0
57 2 0.0700744 0.161905 0.120098 0 0 0
58 2 -0.00785781 0.290949 0.230634 0 0 0
1 3 0.962066 0.85573 0.368227 0 0 0
2 3 0.84374 0.859694 0.402551 0 0 0
3 1 0.975834 0.863946 0.242417 0 0 0
4 1 0.997219 0.723427 0.413411 0 0 0
5 1 0.999916 0.979035 0.42431 0 0 0
6 4 0.787757 0.696052 0.32525 0 0 0
7 1 0.813241 0.998384 0.361796 0 0 0
8 1 0.831585 0.855608 0.52876 0 0 0
9 3 0.787715 0.499475 0.398214 0 0 0
10 3 0.727409 0.484311 0.555761 0 0 0
11 1 0.755267 0.396347 0.315044 0 0 0
12 1 0.86846 0.454939 0.418469 0 0 0
13 4 0.712574 0.28071 0.612845 0 0 0
14 1 0.651845 0.556027 0.546091 0 0 0
15 1 0.772017 0.565875 0.642286 0 0 0
16 3 0.716387 0.739087 0.191227 0 0 0
17 3 0.609729 0.821682 0.243332 0 0 0
18 1 0.703145 0.608604 0.121955 0 0 0
19 1 0.754366 0.843129 0.113554 0 0 0
20 4 0.541546 0.854244 0.107965 0 0 0
21 1 0.620791 0.959303 0.303461 0 0 0
22 1 0.570813 0.721356 0.322468 0 0 0
24 2 0.526285 0.721881 0.059966 0 0 0
25 3 0.652165 0.138163 0.516146 0 0 0
26 3 0.544485 0.209313 0.457474 0 0 0
27 1 0.640178 0.00351432 0.580477 0 0 0
28 1 0.699933 0.100335 0.414899 0 0 0
30 1 0.554861 0.347058 0.398215 0 0 0
35 1 0.567949 0.153798 0.146392 0 0 0
41 3 0.717653 0.247801 0.785817 0 0 0
42 3 0.627121 0.333753 0.88418 0 0 0
43 1 0.724011 0.0933759 0.810823 0 0 0
44 1 0.790607 0.311563 0.827737 0 0 0
45 4 0.530746 0.219188 0.878675 0 0 0
46 1 0.609929 0.481354 0.84743 0 0 0
47 1 0.651408 0.337974 1.00653 0 0 0
49 2 0.551179 0.0765216 0.88361 0 0 0
ITEM: TIMESTEP
200
ITEM: NUMBER OF ATOMS
58
ITEM: BOX BOUNDS ss ss ss
-7.16923 5.62638
-2.96941 3.9495
-3.28317 5.26767
ITEM: ATOMS id type xs ys zs ix iy iz
23 2 0.472165 0.905694 0.150328 0 0 0
29 4 0.492494 0.0668069 0.354517 0 0 0
31 1 0.492147 0.235315 0.556113 0 0 0
32 2 0.417074 0.0504041 0.391555 0 0 0
33 3 0.488982 0.115135 0.185821 0 0 0
34 3 0.414026 0.283039 0.143102 0 0 0
36 1 0.464216 -0.0141492 0.12274 0 0 0
37 4 0.302352 0.234188 0.167017 0 0 0
38 1 0.427662 0.319319 0.0203655 0 0 0
39 1 0.431887 0.41108 0.212688 0 0 0
40 2 0.288917 0.235798 0.284893 0 0 0
48 2 0.497137 0.241266 0.774989 0 0 0
50 3 0.229451 0.373869 0.0923951 0 0 0
51 3 0.131045 0.41379 0.191476 0 0 0
52 1 0.206065 0.314577 -0.0207308 0 0 0
53 1 0.266951 0.513578 0.070955 0 0 0
54 4 0.0689724 0.238816 0.217943 0 0 0
55 1 0.0822961 0.519013 0.130178 0 0 0
56 1 0.153251 0.475215 0.304338 0 0 0
57 2 0.0671245 0.164177 0.114934 0 0 0
58 2 -0.00585735 0.28401 0.239122 0 0 0
1 3 0.962006 0.855067 0.36803 0 0 0
2 3 0.84381 0.859181 0.403303 0 0 0
3 1 0.97533 0.862439 0.242097 0 0 0
4 1 0.997241 0.7229 0.413474 0 0 0
5 1 1.00011 0.978573 0.423344 0 0 0
6 4 0.787465 0.696255 0.326032 0 0 0
7 1 0.813217 0.998154 0.362735 0 0 0
8 1 0.832069 0.855253 0.529532 0 0 0
9 3 0.787665 0.498823 0.399128 0 0 0
10 3 0.727701 0.484498 0.556187 0 0 0
11 1 0.75505 0.396214 0.315705 0 0 0
12 1 0.868481 0.454577 0.418639 0 0 0
13 4 0.712447 0.280405 0.613584 0 0 0
14 1 0.652179 0.556235 0.547236 0 0 0
15 1 0.772596 0.565327 0.642928 0 0 0
16 3 0.716377 0.73862 0.192201 0 0 0
17 3 0.609385 0.820757 0.244046 0 0 0
18 1 0.703299 0.608397 0.122597 0 0 0
19 1 0.754212 0.843218 0.114625 0 0 0
20 4 0.541677 0.854325 0.108471 0 0 0
21 1 0.62028 0.957731 0.30511 0 0 0
22 1 0.57039 0.71953 0.322372 0 0 0
24 2 0.526544 0.72237 0.0596192 0 0 0
25 3 0.651534 0.139019 0.516244 0 0 0
26 3 0.543906 0.21082 0.457486 0 0 0
27 1 0.639369 0.00432566 0.580786 0 0 0
28 1 0.699273 0.100617 0.415194 0 0 0
30 1 0.554024 0.348647 0.398126 0 0 0
35 1 0.567866 0.150611 0.145754 0 0 0
41 3 0.718063 0.24804 0.786089 0 0 0
42 3 0.627722 0.334321 0.885213 0 0 0
43 1 0.724446 0.0935542 0.811514 0 0 0
44 1 0.791065 0.311791 0.827943 0 0 0
45 4 0.531665 0.219093 0.880582 0 0 0
46 1 0.610218 0.481574 0.847807 0 0 0
47 1 0.652431 0.339596 1.00725 0 0 0
49 2 0.552522 0.0766234 0.885818 0 0 0
ITEM: TIMESTEP
225
ITEM: NUMBER OF ATOMS
58
ITEM: BOX BOUNDS ss ss ss
-7.08255 5.65959
-3.16578 3.94306
-3.4817 5.34985
ITEM: ATOMS id type xs ys zs ix iy iz
23 2 0.46668 0.907548 0.170566 0 0 0
29 4 0.480191 0.10392 0.368026 0 0 0
31 1 0.484166 0.273192 0.560637 0 0 0
32 2 0.4029 0.102295 0.398918 0 0 0
33 3 0.483664 0.135998 0.202148 0 0 0
34 3 0.41196 0.297601 0.145942 0 0 0
36 1 0.458383 0.00589606 0.14753 0 0 0
37 4 0.300738 0.267327 0.188617 0 0 0
38 1 0.419132 0.306219 0.0227474 0 0 0
39 1 0.43846 0.43123 0.193463 0 0 0
40 2 0.295843 0.288625 0.302871 0 0 0
48 2 0.496872 0.25159 0.775286 0 0 0
50 3 0.226517 0.399598 0.114936 0 0 0
51 3 0.124329 0.42194 0.207046 0 0 0
52 1 0.20782 0.346644 0.00191986 0 0 0
53 1 0.261502 0.539348 0.102809 0 0 0
54 4 0.0681953 0.243269 0.224734 0 0 0
55 1 0.072585 0.521439 0.149514 0 0 0
56 1 0.142494 0.477813 0.319198 0 0 0
57 2 0.0497614 0.196846 0.118488 0 0 0
58 2 -0.00119473 0.273772 0.277583 0 0 0
1 3 0.959526 0.857657 0.377352 0 0 0
2 3 0.841292 0.862799 0.414479 0 0 0
3 1 0.97136 0.862665 0.255009 0 0 0
4 1 0.995267 0.729633 0.421831 0 0 0
5 1 0.998605 0.978629 0.428551 0 0 0
6 4 0.783786 0.704786 0.340112 0 0 0
7 1 0.810286 0.998331 0.376877 0 0 0
8 1 0.831023 0.857662 0.537043 0 0 0
9 3 0.783664 0.513247 0.409937 0 0 0
10 3 0.723039 0.499956 0.562202 0 0 0
11 1 0.750712 0.413296 0.329386 0 0 0
12 1 0.864663 0.469224 0.429422 0 0 0
13 4 0.705861 0.302039 0.615665 0 0 0
14 1 0.647867 0.572223 0.553455 0 0 0
15 1 0.768832 0.577018 0.646329 0 0 0
16 3 0.712211 0.747253 0.210539 0 0 0
17 3 0.604258 0.823452 0.261385 0 0 0
18 1 0.70026 0.621189 0.141817 0 0 0
19 1 0.749654 0.851056 0.136913 0 0 0
20 4 0.537121 0.860864 0.129885 0 0 0
21 1 0.614143 0.954251 0.324468 0 0 0
22 1 0.564788 0.721347 0.333657 0 0 0
24 2 0.523204 0.734384 0.0785493 0 0 0
25 3 0.641809 0.16832 0.521767 0 0 0
26 3 0.534789 0.244014 0.464354 0 0 0
27 1 0.627166 0.0384162 0.584492 0 0 0
28 1 0.689047 0.127846 0.423956 0 0 0
30 1 0.546152 0.375789 0.40384 0 0 0
35 1 0.564463 0.162852 0.16642 0 0 0
41 3 0.714364 0.267274 0.782525 0 0 0
42 3 0.625804 0.352523 0.88134 0 0 0
43 1 0.719991 0.116499 0.805157 0 0 0
44 1 0.788843 0.326938 0.820927 0 0 0
45 4 0.529397 0.239956 0.880073 0 0 0
46 1 0.607526 0.495505 0.845016 0 0 0
47 1 0.652575 0.358726 0.998707 0 0 0
49 2 0.550669 0.102398 0.89394 0 0 0
ITEM: TIMESTEP
250
ITEM: NUMBER OF ATOMS
58
ITEM: BOX BOUNDS ss ss ss
-7.08255 5.65959
-3.16578 3.94306
-3.4817 5.34985
ITEM: ATOMS id type xs ys zs ix iy iz
23 2 0.466598 0.907486 0.170848 0 0 0
29 4 0.479533 0.104779 0.368394 0 0 0
31 1 0.483911 0.274971 0.560515 0 0 0
32 2 0.402167 0.104361 0.3989 0 0 0
33 3 0.483503 0.135407 0.20237 0 0 0
34 3 0.412118 0.296828 0.145014 0 0 0
36 1 0.458125 0.00496388 0.148378 0 0 0
37 4 0.301044 0.268211 0.189117 0 0 0
38 1 0.418733 0.303341 0.0216811 0 0 0
39 1 0.439295 0.430913 0.190877 0 0 0
40 2 0.296862 0.290939 0.303246 0 0 0
48 2 0.497433 0.249975 0.77511 0 0 0
50 3 0.226825 0.400391 0.11542 0 0 0
51 3 0.124394 0.421454 0.207167 0 0 0
52 1 0.208495 0.347964 0.00212165 0 0 0
53 1 0.261643 0.540363 0.104061 0 0 0
54 4 0.0687191 0.242183 0.224014 0 0 0
55 1 0.072505 0.520854 0.149792 0 0 0
56 1 0.142211 0.476817 0.319601 0 0 0
57 2 0.0497271 0.197039 0.117624 0 0 0
58 2 -0.0004284 0.271493 0.277909 0 0 0
1 3 0.959586 0.857563 0.377154 0 0 0
2 3 0.84139 0.86269 0.414537 0 0 0
3 1 0.971305 0.862528 0.254792 0 0 0
4 1 0.995344 0.729498 0.421578 0 0 0
5 1 0.998736 0.978497 0.428269 0 0 0
6 4 0.783774 0.704991 0.340072 0 0 0
7 1 0.810364 0.99836 0.37706 0 0 0
8 1 0.831237 0.857499 0.537089 0 0 0
9 3 0.783559 0.513199 0.410094 0 0 0
10 3 0.722907 0.500252 0.562081 0 0 0
11 1 0.750624 0.413413 0.329399 0 0 0
12 1 0.864549 0.469224 0.429533 0 0 0
13 4 0.705577 0.302119 0.61564 0 0 0
14 1 0.647759 0.572518 0.553423 0 0 0
15 1 0.768686 0.577067 0.646399 0 0 0
16 3 0.712236 0.747389 0.210673 0 0 0
17 3 0.604182 0.823408 0.261555 0 0 0
18 1 0.700308 0.621488 0.141767 0 0 0
19 1 0.749599 0.851473 0.137114 0 0 0
20 4 0.537115 0.86119 0.130112 0 0 0
21 1 0.614035 0.953948 0.324963 0 0 0
22 1 0.564728 0.720989 0.33356 0 0 0
24 2 0.523328 0.734908 0.078379 0 0 0
25 3 0.641294 0.168874 0.521633 0 0 0
26 3 0.534417 0.245021 0.464235 0 0 0
27 1 0.62643 0.0390311 0.584455 0 0 0
28 1 0.688474 0.128065 0.423884 0 0 0
30 1 0.545945 0.37646 0.403257 0 0 0
35 1 0.564412 0.161571 0.166834 0 0 0
41 3 0.714342 0.267136 0.78222 0 0 0
42 3 0.625893 0.35231 0.881463 0 0 0
43 1 0.719904 0.116259 0.804747 0 0 0
44 1 0.788884 0.326583 0.820591 0 0 0
45 4 0.529516 0.239747 0.880282 0 0 0
46 1 0.607602 0.495312 0.845179 0 0 0
47 1 0.652822 0.358441 0.998713 0 0 0
49 2 0.550742 0.102372 0.895464 0 0 0
ITEM: TIMESTEP
275
ITEM: NUMBER OF ATOMS
58
ITEM: BOX BOUNDS ss ss ss
-7.08255 5.65959
-3.16578 3.94306
-3.4817 5.34985
ITEM: ATOMS id type xs ys zs ix iy iz
23 2 0.466409 0.907461 0.17156 0 0 0
29 4 0.477848 0.106935 0.369458 0 0 0
31 1 0.483345 0.279694 0.560175 0 0 0
32 2 0.400324 0.109592 0.399052 0 0 0
33 3 0.48297 0.133691 0.203049 0 0 0
34 3 0.412459 0.294664 0.14276 0 0 0
36 1 0.457259 0.00236414 0.150799 0 0 0
37 4 0.301786 0.270432 0.190374 0 0 0
38 1 0.417667 0.295859 0.0191762 0 0 0
39 1 0.441334 0.429742 0.184416 0 0 0
40 2 0.299377 0.296533 0.304148 0 0 0
48 2 0.498988 0.245338 0.774556 0 0 0
50 3 0.22762 0.402516 0.1167 0 0 0
51 3 0.124586 0.420297 0.207502 0 0 0
52 1 0.210198 0.35163 0.00264703 0 0 0
53 1 0.26207 0.542999 0.107414 0 0 0
54 4 0.0700285 0.23959 0.222107 0 0 0
55 1 0.0723432 0.519477 0.150568 0 0 0
56 1 0.141512 0.474285 0.320655 0 0 0
57 2 0.0500923 0.19732 0.115305 0 0 0
58 2 0.00135589 0.265915 0.2782 0 0 0
1 3 0.959749 0.857279 0.376602 0 0 0
2 3 0.841654 0.862656 0.414617 0 0 0
3 1 0.971154 0.86228 0.254175 0 0 0
4 1 0.995543 0.729136 0.420792 0 0 0
5 1 0.999105 0.978131 0.427534 0 0 0
6 4 0.783795 0.705119 0.340229 0 0 0
7 1 0.810601 0.998415 0.377572 0 0 0
8 1 0.831828 0.85708 0.537237 0 0 0
9 3 0.783333 0.513545 0.410107 0 0 0
10 3 0.722494 0.500665 0.562132 0 0 0
11 1 0.75037 0.413737 0.32944 0 0 0
12 1 0.864251 0.469227 0.429823 0 0 0
13 4 0.704887 0.302689 0.615228 0 0 0
14 1 0.647455 0.573327 0.553288 0 0 0
15 1 0.768294 0.577294 0.646514 0 0 0
16 3 0.712176 0.748032 0.210871 0 0 0
17 3 0.604076 0.823338 0.26201 0 0 0
18 1 0.700441 0.622337 0.141637 0 0 0
19 1 0.749439 0.85254 0.137667 0 0 0
20 4 0.537079 0.86219 0.130654 0 0 0
21 1 0.613771 0.953315 0.326232 0 0 0
22 1 0.564573 0.720226 0.333288 0 0 0
24 2 0.52366 0.736415 0.0779361 0 0 0
25 3 0.640039 0.170169 0.521435 0 0 0
26 3 0.533475 0.247652 0.463872 0 0 0
27 1 0.624569 0.0406973 0.58436 0 0 0
28 1 0.687055 0.128604 0.423709 0 0 0
30 1 0.545494 0.37805 0.401656 0 0 0
35 1 0.564151 0.157911 0.167913 0 0 0
41 3 0.714245 0.266748 0.781755 0 0 0
42 3 0.62614 0.35171 0.881582 0 0 0
43 1 0.719749 0.11577 0.803668 0 0 0
44 1 0.788968 0.32584 0.819728 0 0 0
45 4 0.529803 0.238964 0.880727 0 0 0
46 1 0.607683 0.494723 0.845526 0 0 0
47 1 0.653379 0.357727 0.998723 0 0 0
49 2 0.550967 0.102251 0.899491 0 0 0
ITEM: TIMESTEP
284
ITEM: NUMBER OF ATOMS
58
ITEM: BOX BOUNDS ss ss ss
-7.08255 5.65959
-3.16578 3.94306
-3.4817 5.34985
ITEM: ATOMS id type xs ys zs ix iy iz
23 2 0.466072 0.908214 0.173037 0 0 0
29 4 0.474346 0.111244 0.372397 0 0 0
31 1 0.482679 0.290174 0.559487 0 0 0
32 2 0.396696 0.120276 0.400335 0 0 0
33 3 0.481247 0.129117 0.205379 0 0 0
34 3 0.412731 0.289005 0.138909 0 0 0
36 1 0.454331 -0.00385984 0.157344 0 0 0
37 4 0.303048 0.274676 0.192794 0 0 0
38 1 0.414995 0.279432 0.0154521 0 0 0
39 1 0.445096 0.425206 0.17179 0 0 0
40 2 0.304274 0.306722 0.305574 0 0 0
48 2 0.502833 0.233131 0.772941 0 0 0
50 3 0.229336 0.407479 0.119513 0 0 0
51 3 0.125132 0.418391 0.208158 0 0 0
52 1 0.213706 0.36055 0.00385418 0 0 0
53 1 0.26317 0.548748 0.114966 0 0 0
54 4 0.0729362 0.234884 0.217591 0 0 0
55 1 0.0722366 0.517315 0.152246 0 0 0
56 1 0.140181 0.468971 0.322863 0 0 0
57 2 0.0524013 0.197499 0.109854 0 0 0
58 2 0.00458902 0.255133 0.276013 0 0 0
1 3 0.960148 0.856772 0.375087 0 0 0
2 3 0.842331 0.862671 0.4148 0 0 0
3 1 0.970731 0.862213 0.25252 0 0 0
4 1 0.995991 0.728218 0.418415 0 0 0
5 1 1.00007 0.977174 0.425783 0 0 0
6 4 0.78375 0.705937 0.340514 0 0 0
7 1 0.811221 0.998817 0.378833 0 0 0
8 1 0.833367 0.856232 0.537537 0 0 0
9 3 0.782777 0.514376 0.410197 0 0 0
10 3 0.721658 0.501876 0.562021 0 0 0
11 1 0.749723 0.414802 0.329397 0 0 0
12 1 0.863561 0.469469 0.430239 0 0 0
13 4 0.703677 0.303867 0.614458 0 0 0
14 1 0.646754 0.574969 0.552967 0 0 0
15 1 0.767417 0.5781 0.646676 0 0 0
16 3 0.712101 0.749806 0.211375 0 0 0
17 3 0.603848 0.823874 0.262949 0 0 0
18 1 0.700666 0.6247 0.141348 0 0 0
19 1 0.749169 0.855283 0.13889 0 0 0
20 4 0.537073 0.865092 0.131824 0 0 0
21 1 0.613297 0.952551 0.328913 0 0 0