LAMMPS (10 Feb 2015)
units           real
atom_style      full
boundary        s s s
dielectric      72
special_bonds   lj/coul 0.0 0.0 1.0

pair_style      lj/cut/coul/debye 0.142 10
bond_style      harmonic
angle_style     harmonic
dihedral_style  charmm
improper_style  none
kspace_style    none

read_data       data._polymer_7
  orthogonal box = (-50 -50 -50) to (50 50 50)
  1 by 1 by 1 MPI processor grid
  reading atoms ...
  66 atoms
  scanning bonds ...
  4 = max bonds/atom
  scanning angles ...
  6 = max angles/atom
  scanning dihedrals ...
  16 = max dihedrals/atom
  reading bonds ...
  65 bonds
  reading angles ...
  120 angles
  reading dihedrals ...
  162 dihedrals
  4 = max # of 1-2 neighbors
  9 = max # of 1-3 neighbors
  12 = max # of special neighbors

pair_modify     mix geometric
neighbor        2.0 multi
neigh_modify    every 2 delay 4 check yes
thermo_style    multi

variable        input index in._polymer_7
variable        sname index _polymer_7

print                          .
.
print ==========================================
==========================================
print "500 steps CG Minimization"
500 steps CG Minimization
print ==========================================
==========================================
print                          .
.

dump            1 all atom 25 ${sname}.min.lammpstrj
dump            1 all atom 25 _polymer_7.min.lammpstrj
dump_modify     1 image yes scale yes
thermo          10
min_style       sd
minimize        1.0e-4 1.0e-4 500 5000
WARNING: Resetting reneighboring criteria during minimization (../min.cpp:168)
Neighbor list info ...
  1 neighbor list requests
  update every 1 steps, delay 0 steps, check yes
  master list distance cutoff = 12
Memory usage per processor = 14.6061 Mbytes
---------------- Step        0 ----- CPU =      0.0000 (sec) ----------------
TotEng   =    264053.2365 KinEng   =         0.0000 Temp     =         0.0000 
PotEng   =    264053.2365 E_bond   =        13.5882 E_angle  =       171.4150 
E_dihed  =         9.1146 E_impro  =         0.0000 E_vdwl   =    263859.4164 
E_coul   =        -0.2977 E_long   =         0.0000 Press    =  90599293.2174 
Volume   =       799.5532 
---------------- Step       10 ----- CPU =      0.0022 (sec) ----------------
TotEng   =       545.1536 KinEng   =         0.0000 Temp     =         0.0000 
PotEng   =       545.1536 E_bond   =       102.1025 E_angle  =       172.0634 
E_dihed  =        11.5814 E_impro  =         0.0000 E_vdwl   =       259.7961 
E_coul   =        -0.3898 E_long   =         0.0000 Press    =     69924.6887 
Volume   =       799.5532 
---------------- Step       20 ----- CPU =      0.0066 (sec) ----------------
TotEng   =       266.4796 KinEng   =         0.0000 Temp     =         0.0000 
PotEng   =       266.4796 E_bond   =        32.1876 E_angle  =       106.2466 
E_dihed  =        11.5582 E_impro  =         0.0000 E_vdwl   =       116.8058 
E_coul   =        -0.3185 E_long   =         0.0000 Press    =     23093.8637 
Volume   =       840.9838 
---------------- Step       30 ----- CPU =      0.0112 (sec) ----------------
TotEng   =       187.7573 KinEng   =         0.0000 Temp     =         0.0000 
PotEng   =       187.7573 E_bond   =        22.4820 E_angle  =        77.0458 
E_dihed  =        11.9427 E_impro  =         0.0000 E_vdwl   =        76.5606 
E_coul   =        -0.2739 E_long   =         0.0000 Press    =     12049.8189 
Volume   =       840.9838 
---------------- Step       40 ----- CPU =      0.0156 (sec) ----------------
TotEng   =       152.1250 KinEng   =         0.0000 Temp     =         0.0000 
PotEng   =       152.1250 E_bond   =        17.4195 E_angle  =        64.4951 
E_dihed  =        12.2175 E_impro  =         0.0000 E_vdwl   =        58.2251 
E_coul   =        -0.2322 E_long   =         0.0000 Press    =      7073.0024 
Volume   =       840.9838 
---------------- Step       50 ----- CPU =      0.0202 (sec) ----------------
TotEng   =       131.5483 KinEng   =         0.0000 Temp     =         0.0000 
PotEng   =       131.5483 E_bond   =        14.3031 E_angle  =        57.4527 
E_dihed  =        12.3499 E_impro  =         0.0000 E_vdwl   =        47.6496 
E_coul   =        -0.2070 E_long   =         0.0000 Press    =      4106.8089 
Volume   =       851.0304 
---------------- Step       60 ----- CPU =      0.0247 (sec) ----------------
TotEng   =       117.9991 KinEng   =         0.0000 Temp     =         0.0000 
PotEng   =       117.9991 E_bond   =        12.1849 E_angle  =        52.8427 
E_dihed  =        12.3931 E_impro  =         0.0000 E_vdwl   =        40.7699 
E_coul   =        -0.1914 E_long   =         0.0000 Press    =      2239.4177 
Volume   =       851.0304 
---------------- Step       70 ----- CPU =      0.0291 (sec) ----------------
TotEng   =       108.1616 KinEng   =         0.0000 Temp     =         0.0000 
PotEng   =       108.1616 E_bond   =        10.6185 E_angle  =        49.4066 
E_dihed  =        12.3881 E_impro  =         0.0000 E_vdwl   =        35.9302 
E_coul   =        -0.1819 E_long   =         0.0000 Press    =       978.4050 
Volume   =       851.0304 
---------------- Step       80 ----- CPU =      0.0337 (sec) ----------------
TotEng   =       100.0986 KinEng   =         0.0000 Temp     =         0.0000 
PotEng   =       100.0986 E_bond   =         9.3054 E_angle  =        46.3597 
E_dihed  =        12.3561 E_impro  =         0.0000 E_vdwl   =        32.2499 
E_coul   =        -0.1725 E_long   =         0.0000 Press    =       140.5768 
Volume   =       851.0304 
---------------- Step       90 ----- CPU =      0.0381 (sec) ----------------
TotEng   =        91.6623 KinEng   =         0.0000 Temp     =         0.0000 
PotEng   =        91.6623 E_bond   =         7.8995 E_angle  =        42.4121 
E_dihed  =        12.2629 E_impro  =         0.0000 E_vdwl   =        29.2577 
E_coul   =        -0.1698 E_long   =         0.0000 Press    =      -151.2561 
Volume   =       851.0304 
---------------- Step      100 ----- CPU =      0.0427 (sec) ----------------
TotEng   =        88.8084 KinEng   =         0.0000 Temp     =         0.0000 
PotEng   =        88.8084 E_bond   =         7.5640 E_angle  =        40.5977 
E_dihed  =        12.1163 E_impro  =         0.0000 E_vdwl   =        28.7057 
E_coul   =        -0.1754 E_long   =         0.0000 Press    =       -26.3079 
Volume   =       851.0304 
---------------- Step      110 ----- CPU =      0.0471 (sec) ----------------
TotEng   =        88.4089 KinEng   =         0.0000 Temp     =         0.0000 
PotEng   =        88.4089 E_bond   =         7.5392 E_angle  =        40.3133 
E_dihed  =        12.0741 E_impro  =         0.0000 E_vdwl   =        28.6640 
E_coul   =        -0.1817 E_long   =         0.0000 Press    =        -8.9703 
Volume   =       851.0304 
---------------- Step      120 ----- CPU =      0.0516 (sec) ----------------
TotEng   =        88.0323 KinEng   =         0.0000 Temp     =         0.0000 
PotEng   =        88.0323 E_bond   =         7.5169 E_angle  =        40.0395 
E_dihed  =        12.0319 E_impro  =         0.0000 E_vdwl   =        28.6259 
E_coul   =        -0.1818 E_long   =         0.0000 Press    =         8.0825 
Volume   =       851.0304 
---------------- Step      130 ----- CPU =      0.0561 (sec) ----------------
TotEng   =        87.6703 KinEng   =         0.0000 Temp     =         0.0000 
PotEng   =        87.6703 E_bond   =         7.4964 E_angle  =        39.7757 
E_dihed  =        11.9898 E_impro  =         0.0000 E_vdwl   =        28.5904 
E_coul   =        -0.1819 E_long   =         0.0000 Press    =        24.0489 
Volume   =       851.0304 
---------------- Step      140 ----- CPU =      0.0605 (sec) ----------------
TotEng   =        87.3213 KinEng   =         0.0000 Temp     =         0.0000 
PotEng   =        87.3213 E_bond   =         7.4774 E_angle  =        39.5213 
E_dihed  =        11.9478 E_impro  =         0.0000 E_vdwl   =        28.5568 
E_coul   =        -0.1821 E_long   =         0.0000 Press    =        39.1248 
Volume   =       851.0304 
---------------- Step      150 ----- CPU =      0.0651 (sec) ----------------
TotEng   =        86.9839 KinEng   =         0.0000 Temp     =         0.0000 
PotEng   =        86.9839 E_bond   =         7.4598 E_angle  =        39.2756 
E_dihed  =        11.9058 E_impro  =         0.0000 E_vdwl   =        28.5248 
E_coul   =        -0.1822 E_long   =         0.0000 Press    =        53.3546 
Volume   =       851.0304 
---------------- Step      160 ----- CPU =      0.0695 (sec) ----------------
TotEng   =        86.6567 KinEng   =         0.0000 Temp     =         0.0000 
PotEng   =        86.6567 E_bond   =         7.4433 E_angle  =        39.0378 
E_dihed  =        11.8640 E_impro  =         0.0000 E_vdwl   =        28.4940 
E_coul   =        -0.1824 E_long   =         0.0000 Press    =        66.7712 
Volume   =       851.0304 
---------------- Step      170 ----- CPU =      0.0740 (sec) ----------------
TotEng   =        86.3382 KinEng   =         0.0000 Temp     =         0.0000 
PotEng   =        86.3382 E_bond   =         7.4277 E_angle  =        38.8067 
E_dihed  =        11.8223 E_impro  =         0.0000 E_vdwl   =        28.4641 
E_coul   =        -0.1826 E_long   =         0.0000 Press    =        79.4250 
Volume   =       851.0304 
---------------- Step      180 ----- CPU =      0.0785 (sec) ----------------
TotEng   =        86.0245 KinEng   =         0.0000 Temp     =         0.0000 
PotEng   =        86.0245 E_bond   =         7.4130 E_angle  =        38.5810 
E_dihed  =        11.7804 E_impro  =         0.0000 E_vdwl   =        28.4348 
E_coul   =        -0.1848 E_long   =         0.0000 Press    =        91.2731 
Volume   =       851.0304 
---------------- Step      190 ----- CPU =      0.0829 (sec) ----------------
TotEng   =        85.7192 KinEng   =         0.0000 Temp     =         0.0000 
PotEng   =        85.7192 E_bond   =         7.3990 E_angle  =        38.3590 
E_dihed  =        11.7381 E_impro  =         0.0000 E_vdwl   =        28.4059 
E_coul   =        -0.1829 E_long   =         0.0000 Press    =       102.7564 
Volume   =       851.0304 
---------------- Step      200 ----- CPU =      0.0875 (sec) ----------------
TotEng   =        85.4131 KinEng   =         0.0000 Temp     =         0.0000 
PotEng   =        85.4131 E_bond   =         7.3856 E_angle  =        38.1385 
E_dihed  =        11.6951 E_impro  =         0.0000 E_vdwl   =        28.3770 
E_coul   =        -0.1832 E_long   =         0.0000 Press    =       113.6323 
Volume   =       851.0304 
---------------- Step      210 ----- CPU =      0.0919 (sec) ----------------
TotEng   =        85.1046 KinEng   =         0.0000 Temp     =         0.0000 
PotEng   =        85.1046 E_bond   =         7.3727 E_angle  =        37.9166 
E_dihed  =        11.6508 E_impro  =         0.0000 E_vdwl   =        28.3479 
E_coul   =        -0.1835 E_long   =         0.0000 Press    =       124.1565 
Volume   =       851.0304 
---------------- Step      220 ----- CPU =      0.0963 (sec) ----------------
TotEng   =        84.7903 KinEng   =         0.0000 Temp     =         0.0000 
PotEng   =        84.7903 E_bond   =         7.3601 E_angle  =        37.6893 
E_dihed  =        11.6043 E_impro  =         0.0000 E_vdwl   =        28.3181 
E_coul   =        -0.1816 E_long   =         0.0000 Press    =       134.6545 
Volume   =       851.0304 
---------------- Step      230 ----- CPU =      0.1009 (sec) ----------------
TotEng   =        84.4577 KinEng   =         0.0000 Temp     =         0.0000 
PotEng   =        84.4577 E_bond   =         7.3477 E_angle  =        37.4509 
E_dihed  =        11.5544 E_impro  =         0.0000 E_vdwl   =        28.2866 
E_coul   =        -0.1819 E_long   =         0.0000 Press    =       144.9830 
Volume   =       851.0304 
---------------- Step      240 ----- CPU =      0.1053 (sec) ----------------
TotEng   =        84.0956 KinEng   =         0.0000 Temp     =         0.0000 
PotEng   =        84.0956 E_bond   =         7.3353 E_angle  =        37.1932 
E_dihed  =        11.4989 E_impro  =         0.0000 E_vdwl   =        28.2527 
E_coul   =        -0.1846 E_long   =         0.0000 Press    =       155.5115 
Volume   =       851.0304 
---------------- Step      250 ----- CPU =      0.1098 (sec) ----------------
TotEng   =        83.6898 KinEng   =         0.0000 Temp     =         0.0000 
PotEng   =        83.6898 E_bond   =         7.3231 E_angle  =        36.9026 
E_dihed  =        11.4345 E_impro  =         0.0000 E_vdwl   =        28.2147 
E_coul   =        -0.1851 E_long   =         0.0000 Press    =       166.8290 
Volume   =       851.0304 
---------------- Step      260 ----- CPU =      0.1143 (sec) ----------------
TotEng   =        83.2001 KinEng   =         0.0000 Temp     =         0.0000 
PotEng   =        83.2001 E_bond   =         7.3117 E_angle  =        36.5512 
E_dihed  =        11.3538 E_impro  =         0.0000 E_vdwl   =        28.1693 
E_coul   =        -0.1858 E_long   =         0.0000 Press    =       179.4125 
Volume   =       851.0304 
---------------- Step      270 ----- CPU =      0.1187 (sec) ----------------
TotEng   =        82.5354 KinEng   =         0.0000 Temp     =         0.0000 
PotEng   =        82.5354 E_bond   =         7.3055 E_angle  =        36.0632 
E_dihed  =        11.2358 E_impro  =         0.0000 E_vdwl   =        28.1079 
E_coul   =        -0.1769 E_long   =         0.0000 Press    =       195.0405 
Volume   =       851.0304 
---------------- Step      280 ----- CPU =      0.1232 (sec) ----------------
TotEng   =        81.3985 KinEng   =         0.0000 Temp     =         0.0000 
PotEng   =        81.3985 E_bond   =         7.2840 E_angle  =        35.2498 
E_dihed  =        11.0334 E_impro  =         0.0000 E_vdwl   =        28.0094 
E_coul   =        -0.1781 E_long   =         0.0000 Press    =       320.9221 
Volume   =       851.0304 
---------------- Step      290 ----- CPU =      0.1277 (sec) ----------------
TotEng   =        81.1718 KinEng   =         0.0000 Temp     =         0.0000 
PotEng   =        81.1718 E_bond   =         7.2065 E_angle  =        35.1575 
E_dihed  =        10.9965 E_impro  =         0.0000 E_vdwl   =        27.9899 
E_coul   =        -0.1787 E_long   =         0.0000 Press    =       242.5834 
Volume   =       851.0304 
---------------- Step      300 ----- CPU =      0.1322 (sec) ----------------
TotEng   =        80.9701 KinEng   =         0.0000 Temp     =         0.0000 
PotEng   =        80.9701 E_bond   =         7.1999 E_angle  =        35.0178 
E_dihed  =        10.9562 E_impro  =         0.0000 E_vdwl   =        27.9733 
E_coul   =        -0.1771 E_long   =         0.0000 Press    =       247.4387 
Volume   =       851.0304 
---------------- Step      310 ----- CPU =      0.1366 (sec) ----------------
TotEng   =        80.7514 KinEng   =         0.0000 Temp     =         0.0000 
PotEng   =        80.7514 E_bond   =         7.1931 E_angle  =        34.8685 
E_dihed  =        10.9119 E_impro  =         0.0000 E_vdwl   =        27.9555 
E_coul   =        -0.1775 E_long   =         0.0000 Press    =       252.0437 
Volume   =       851.0304 
---------------- Step      320 ----- CPU =      0.1410 (sec) ----------------
TotEng   =        80.5113 KinEng   =         0.0000 Temp     =         0.0000 
PotEng   =        80.5113 E_bond   =         7.1860 E_angle  =        34.7051 
E_dihed  =        10.8623 E_impro  =         0.0000 E_vdwl   =        27.9359 
E_coul   =        -0.1780 E_long   =         0.0000 Press    =       256.7930 
Volume   =       851.0304 
---------------- Step      330 ----- CPU =      0.1456 (sec) ----------------
TotEng   =        80.2405 KinEng   =         0.0000 Temp     =         0.0000 
PotEng   =        80.2405 E_bond   =         7.1783 E_angle  =        34.5232 
E_dihed  =        10.8053 E_impro  =         0.0000 E_vdwl   =        27.9142 
E_coul   =        -0.1806 E_long   =         0.0000 Press    =       261.6761 
Volume   =       851.0304 
---------------- Step      340 ----- CPU =      0.1500 (sec) ----------------
TotEng   =        79.9394 KinEng   =         0.0000 Temp     =         0.0000 
PotEng   =        79.9394 E_bond   =         7.1696 E_angle  =        34.3186 
E_dihed  =        10.7391 E_impro  =         0.0000 E_vdwl   =        27.8897 
E_coul   =        -0.1776 E_long   =         0.0000 Press    =       267.2028 
Volume   =       851.0304 
---------------- Step      350 ----- CPU =      0.1545 (sec) ----------------
TotEng   =        79.5957 KinEng   =         0.0000 Temp     =         0.0000 
PotEng   =        79.5957 E_bond   =         7.1595 E_angle  =        34.0902 
E_dihed  =        10.6625 E_impro  =         0.0000 E_vdwl   =        27.8617 
E_coul   =        -0.1782 E_long   =         0.0000 Press    =       272.6922 
Volume   =       851.0304 
---------------- Step      360 ----- CPU =      0.1590 (sec) ----------------
TotEng   =        79.2261 KinEng   =         0.0000 Temp     =         0.0000 
PotEng   =        79.2261 E_bond   =         7.1470 E_angle  =        33.8447 
E_dihed  =        10.5768 E_impro  =         0.0000 E_vdwl   =        27.8308 
E_coul   =        -0.1732 E_long   =         0.0000 Press    =       278.5701 
Volume   =       851.0304 
---------------- Step      370 ----- CPU =      0.1634 (sec) ----------------
TotEng   =        78.8419 KinEng   =         0.0000 Temp     =         0.0000 
PotEng   =        78.8419 E_bond   =         7.1320 E_angle  =        33.5996 
E_dihed  =        10.4880 E_impro  =         0.0000 E_vdwl   =        27.7981 
E_coul   =        -0.1758 E_long   =         0.0000 Press    =       282.6828 
Volume   =       851.0304 
---------------- Step      380 ----- CPU =      0.1679 (sec) ----------------
TotEng   =        78.4988 KinEng   =         0.0000 Temp     =         0.0000 
PotEng   =        78.4988 E_bond   =         7.1158 E_angle  =        33.3760 
E_dihed  =        10.4040 E_impro  =         0.0000 E_vdwl   =        27.7654 
E_coul   =        -0.1625 E_long   =         0.0000 Press    =       291.9417 
Volume   =       851.0304 
---------------- Step      390 ----- CPU =      0.1724 (sec) ----------------
TotEng   =        78.1948 KinEng   =         0.0000 Temp     =         0.0000 
PotEng   =        78.1948 E_bond   =         7.1002 E_angle  =        33.1881 
E_dihed  =        10.3323 E_impro  =         0.0000 E_vdwl   =        27.7370 
E_coul   =        -0.1628 E_long   =         0.0000 Press    =       284.6517 
Volume   =       841.4976 
---------------- Step      400 ----- CPU =      0.1770 (sec) ----------------
TotEng   =        77.9513 KinEng   =         0.0000 Temp     =         0.0000 
PotEng   =        77.9513 E_bond   =         7.0872 E_angle  =        33.0404 
E_dihed  =        10.2739 E_impro  =         0.0000 E_vdwl   =        27.7129 
E_coul   =        -0.1630 E_long   =         0.0000 Press    =       298.4571 
Volume   =       841.4976 
---------------- Step      410 ----- CPU =      0.1814 (sec) ----------------
TotEng   =        77.7420 KinEng   =         0.0000 Temp     =         0.0000 
PotEng   =        77.7420 E_bond   =         7.0772 E_angle  =        32.9144 
E_dihed  =        10.2241 E_impro  =         0.0000 E_vdwl   =        27.6919 
E_coul   =        -0.1656 E_long   =         0.0000 Press    =       295.5754 
Volume   =       841.4976 
---------------- Step      420 ----- CPU =      0.1858 (sec) ----------------
TotEng   =        77.5597 KinEng   =         0.0000 Temp     =         0.0000 
PotEng   =        77.5597 E_bond   =         7.0684 E_angle  =        32.8042 
E_dihed  =        10.1801 E_impro  =         0.0000 E_vdwl   =        27.6727 
E_coul   =        -0.1658 E_long   =         0.0000 Press    =       295.7782 
Volume   =       841.4976 
---------------- Step      430 ----- CPU =      0.1903 (sec) ----------------
TotEng   =        77.3965 KinEng   =         0.0000 Temp     =         0.0000 
PotEng   =        77.3965 E_bond   =         7.0607 E_angle  =        32.7059 
E_dihed  =        10.1408 E_impro  =         0.0000 E_vdwl   =        27.6549 
E_coul   =        -0.1658 E_long   =         0.0000 Press    =       295.3634 
Volume   =       841.4976 
---------------- Step      440 ----- CPU =      0.1948 (sec) ----------------
TotEng   =        77.2481 KinEng   =         0.0000 Temp     =         0.0000 
PotEng   =        77.2481 E_bond   =         7.0537 E_angle  =        32.6169 
E_dihed  =        10.1051 E_impro  =         0.0000 E_vdwl   =        27.6383 
E_coul   =        -0.1659 E_long   =         0.0000 Press    =       294.6449 
Volume   =       841.4976 
---------------- Step      450 ----- CPU =      0.1993 (sec) ----------------
TotEng   =        77.1135 KinEng   =         0.0000 Temp     =         0.0000 
PotEng   =        77.1135 E_bond   =         7.0472 E_angle  =        32.5350 
E_dihed  =        10.0724 E_impro  =         0.0000 E_vdwl   =        27.6224 
E_coul   =        -0.1635 E_long   =         0.0000 Press    =       293.8184 
Volume   =       841.4976 
---------------- Step      460 ----- CPU =      0.2037 (sec) ----------------
TotEng   =        76.9855 KinEng   =         0.0000 Temp     =         0.0000 
PotEng   =        76.9855 E_bond   =         7.0412 E_angle  =        32.4587 
E_dihed  =        10.0419 E_impro  =         0.0000 E_vdwl   =        27.6072 
E_coul   =        -0.1635 E_long   =         0.0000 Press    =       292.6387 
Volume   =       841.4976 
---------------- Step      470 ----- CPU =      0.2081 (sec) ----------------
TotEng   =        76.8645 KinEng   =         0.0000 Temp     =         0.0000 
PotEng   =        76.8645 E_bond   =         7.0355 E_angle  =        32.3867 
E_dihed  =        10.0132 E_impro  =         0.0000 E_vdwl   =        27.5925 
E_coul   =        -0.1635 E_long   =         0.0000 Press    =       291.2799 
Volume   =       841.4976 
---------------- Step      480 ----- CPU =      0.2127 (sec) ----------------
TotEng   =        76.7488 KinEng   =         0.0000 Temp     =         0.0000 
PotEng   =        76.7488 E_bond   =         7.0301 E_angle  =        32.3180 
E_dihed  =         9.9861 E_impro  =         0.0000 E_vdwl   =        27.5781 
E_coul   =        -0.1635 E_long   =         0.0000 Press    =       289.7569 
Volume   =       841.4976 
---------------- Step      490 ----- CPU =      0.2171 (sec) ----------------
TotEng   =        76.6372 KinEng   =         0.0000 Temp     =         0.0000 
PotEng   =        76.6372 E_bond   =         7.0248 E_angle  =        32.2518 
E_dihed  =         9.9601 E_impro  =         0.0000 E_vdwl   =        27.5639 
E_coul   =        -0.1634 E_long   =         0.0000 Press    =       288.0785 
Volume   =       841.4976 
---------------- Step      500 ----- CPU =      0.2216 (sec) ----------------
TotEng   =        76.5288 KinEng   =         0.0000 Temp     =         0.0000 
PotEng   =        76.5288 E_bond   =         7.0196 E_angle  =        32.1877 
E_dihed  =         9.9351 E_impro  =         0.0000 E_vdwl   =        27.5497 
E_coul   =        -0.1633 E_long   =         0.0000 Press    =       286.2505 
Volume   =       841.4976 
Loop time of 0.221625 on 1 procs for 500 steps with 66 atoms

Minimization stats:
  Stopping criterion = max iterations
  Energy initial, next-to-last, final = 
         264053.236489      76.5395266608      76.5288137362
  Force two-norm initial, final = 2.81509e+06 5.34013
  Force max component initial, final = 1.84874e+06 1.28168
  Final line search alpha, max atom move = 0.0808732 0.103654
  Iterations, force evaluations = 500 989

Pair  time (%) = 0.170317 (76.8491)
Bond  time (%) = 0.0454581 (20.5113)
Neigh time (%) = 0.00025773 (0.116291)
Comm  time (%) = 0.00016427 (0.0741209)
Outpt time (%) = 0.00269747 (1.21713)
Other time (%) = 0.00273061 (1.23209)

Nlocal:    66 ave 66 max 66 min
Histogram: 1 0 0 0 0 0 0 0 0 0
Nghost:    0 ave 0 max 0 min
Histogram: 1 0 0 0 0 0 0 0 0 0
Neighs:    1938 ave 1938 max 1938 min
Histogram: 1 0 0 0 0 0 0 0 0 0

Total # of neighbors = 1938
Ave neighs/atom = 29.3636
Ave special neighs/atom = 5.60606
Neighbor list builds = 3
Dangerous builds = 0
min_style       cg
minimize        1.0e-4 1.0e-4 500 5000
WARNING: Resetting reneighboring criteria during minimization (../min.cpp:168)
Memory usage per processor = 14.6061 Mbytes
---------------- Step      500 ----- CPU =      0.0000 (sec) ----------------
TotEng   =        76.5288 KinEng   =         0.0000 Temp     =         0.0000 
PotEng   =        76.5288 E_bond   =         7.0196 E_angle  =        32.1877 
E_dihed  =         9.9351 E_impro  =         0.0000 E_vdwl   =        27.5497 
E_coul   =        -0.1633 E_long   =         0.0000 Press    =       286.8301 
Volume   =       839.7971 
---------------- Step      510 ----- CPU =      0.0042 (sec) ----------------
TotEng   =        73.1326 KinEng   =         0.0000 Temp     =         0.0000 
PotEng   =        73.1326 E_bond   =         7.1861 E_angle  =        29.7014 
E_dihed  =         9.5257 E_impro  =         0.0000 E_vdwl   =        26.8956 
E_coul   =        -0.1763 E_long   =         0.0000 Press    =     -1356.4307 
Volume   =       839.7971 
---------------- Step      520 ----- CPU =      0.0086 (sec) ----------------
TotEng   =        72.4011 KinEng   =         0.0000 Temp     =         0.0000 
PotEng   =        72.4011 E_bond   =         6.6399 E_angle  =        29.7163 
E_dihed  =         9.6272 E_impro  =         0.0000 E_vdwl   =        26.5873 
E_coul   =        -0.1695 E_long   =         0.0000 Press    =       174.3334 
Volume   =       839.7971 
---------------- Step      530 ----- CPU =      0.0132 (sec) ----------------
TotEng   =        71.4542 KinEng   =         0.0000 Temp     =         0.0000 
PotEng   =        71.4542 E_bond   =         6.7011 E_angle  =        29.0457 
E_dihed  =         9.9420 E_impro  =         0.0000 E_vdwl   =        25.9494 
E_coul   =        -0.1839 E_long   =         0.0000 Press    =      -517.4934 
Volume   =       839.7971 
---------------- Step      540 ----- CPU =      0.0177 (sec) ----------------
TotEng   =        70.8924 KinEng   =         0.0000 Temp     =         0.0000 
PotEng   =        70.8924 E_bond   =         6.3293 E_angle  =        28.3660 
E_dihed  =        10.2485 E_impro  =         0.0000 E_vdwl   =        26.1348 
E_coul   =        -0.1862 E_long   =         0.0000 Press    =        33.5578 
Volume   =       829.2014 
---------------- Step      550 ----- CPU =      0.0222 (sec) ----------------
TotEng   =        70.3616 KinEng   =         0.0000 Temp     =         0.0000 
PotEng   =        70.3616 E_bond   =         6.5698 E_angle  =        27.8942 
E_dihed  =        10.4064 E_impro  =         0.0000 E_vdwl   =        25.6751 
E_coul   =        -0.1838 E_long   =         0.0000 Press    =      -390.7152 
Volume   =       829.2014 
---------------- Step      560 ----- CPU =      0.0266 (sec) ----------------
TotEng   =        70.0102 KinEng   =         0.0000 Temp     =         0.0000 
PotEng   =        70.0102 E_bond   =         6.3893 E_angle  =        27.5029 
E_dihed  =        10.5966 E_impro  =         0.0000 E_vdwl   =        25.7032 
E_coul   =        -0.1818 E_long   =         0.0000 Press    =      -203.4572 
Volume   =       829.2014 
---------------- Step      570 ----- CPU =      0.0311 (sec) ----------------
TotEng   =        69.6485 KinEng   =         0.0000 Temp     =         0.0000 
PotEng   =        69.6485 E_bond   =         6.2804 E_angle  =        27.1486 
E_dihed  =        10.6340 E_impro  =         0.0000 E_vdwl   =        25.7704 
E_coul   =        -0.1849 E_long   =         0.0000 Press    =       -15.0565 
Volume   =       829.2014 
---------------- Step      580 ----- CPU =      0.0357 (sec) ----------------
TotEng   =        69.2409 KinEng   =         0.0000 Temp     =         0.0000 
PotEng   =        69.2409 E_bond   =         6.1567 E_angle  =        26.8665 
E_dihed  =        10.6548 E_impro  =         0.0000 E_vdwl   =        25.7414 
E_coul   =        -0.1785 E_long   =         0.0000 Press    =       255.4694 
Volume   =       817.4750 
---------------- Step      590 ----- CPU =      0.0401 (sec) ----------------
TotEng   =        68.7903 KinEng   =         0.0000 Temp     =         0.0000 
PotEng   =        68.7903 E_bond   =         6.3207 E_angle  =        26.5603 
E_dihed  =        10.7248 E_impro  =         0.0000 E_vdwl   =        25.3572 
E_coul   =        -0.1728 E_long   =         0.0000 Press    =      -506.6021 
Volume   =       817.4750 
---------------- Step      600 ----- CPU =      0.0447 (sec) ----------------
TotEng   =        68.2051 KinEng   =         0.0000 Temp     =         0.0000 
PotEng   =        68.2051 E_bond   =         6.3017 E_angle  =        26.0594 
E_dihed  =        10.6333 E_impro  =         0.0000 E_vdwl   =        25.3751 
E_coul   =        -0.1644 E_long   =         0.0000 Press    =      -123.7911 
Volume   =       817.4750 
---------------- Step      610 ----- CPU =      0.0491 (sec) ----------------
TotEng   =        67.8224 KinEng   =         0.0000 Temp     =         0.0000 
PotEng   =        67.8224 E_bond   =         6.1238 E_angle  =        25.5679 
E_dihed  =        10.4931 E_impro  =         0.0000 E_vdwl   =        25.8172 
E_coul   =        -0.1796 E_long   =         0.0000 Press    =       477.1992 
Volume   =       817.4750 
---------------- Step      620 ----- CPU =      0.0536 (sec) ----------------
TotEng   =        67.4870 KinEng   =         0.0000 Temp     =         0.0000 
PotEng   =        67.4870 E_bond   =         6.2542 E_angle  =        25.1493 
E_dihed  =        10.3039 E_impro  =         0.0000 E_vdwl   =        25.9875 
E_coul   =        -0.2079 E_long   =         0.0000 Press    =       -80.2465 
Volume   =       784.8198 
---------------- Step      630 ----- CPU =      0.0582 (sec) ----------------
TotEng   =        67.0238 KinEng   =         0.0000 Temp     =         0.0000 
PotEng   =        67.0238 E_bond   =         6.1734 E_angle  =        25.0526 
E_dihed  =         9.9819 E_impro  =         0.0000 E_vdwl   =        26.0334 
E_coul   =        -0.2176 E_long   =         0.0000 Press    =       400.7518 
Volume   =       784.8198 
---------------- Step      640 ----- CPU =      0.0626 (sec) ----------------
TotEng   =        66.6084 KinEng   =         0.0000 Temp     =         0.0000 
PotEng   =        66.6084 E_bond   =         6.4861 E_angle  =        24.2772 
E_dihed  =         9.7811 E_impro  =         0.0000 E_vdwl   =        26.2799 
E_coul   =        -0.2160 E_long   =         0.0000 Press    =      -303.1731 
Volume   =       784.8198 
---------------- Step      650 ----- CPU =      0.0671 (sec) ----------------
TotEng   =        66.1568 KinEng   =         0.0000 Temp     =         0.0000 
PotEng   =        66.1568 E_bond   =         6.4447 E_angle  =        24.4112 
E_dihed  =         9.6164 E_impro  =         0.0000 E_vdwl   =        25.9040 
E_coul   =        -0.2196 E_long   =         0.0000 Press    =      -397.5493 
Volume   =       784.8198 
---------------- Step      660 ----- CPU =      0.0716 (sec) ----------------
TotEng   =        65.8024 KinEng   =         0.0000 Temp     =         0.0000 
PotEng   =        65.8024 E_bond   =         6.1660 E_angle  =        23.9136 
E_dihed  =         9.5924 E_impro  =         0.0000 E_vdwl   =        26.3748 
E_coul   =        -0.2445 E_long   =         0.0000 Press    =       232.6000 
Volume   =       821.9626 
---------------- Step      670 ----- CPU =      0.0760 (sec) ----------------
TotEng   =        65.4037 KinEng   =         0.0000 Temp     =         0.0000 
PotEng   =        65.4037 E_bond   =         6.2905 E_angle  =        24.0505 
E_dihed  =         9.4798 E_impro  =         0.0000 E_vdwl   =        25.8539 
E_coul   =        -0.2710 E_long   =         0.0000 Press    =      -223.0831 
Volume   =       821.9626 
---------------- Step      680 ----- CPU =      0.0805 (sec) ----------------
TotEng   =        64.9786 KinEng   =         0.0000 Temp     =         0.0000 
PotEng   =        64.9786 E_bond   =         6.2425 E_angle  =        24.1086 
E_dihed  =         9.3776 E_impro  =         0.0000 E_vdwl   =        25.5125 
E_coul   =        -0.2625 E_long   =         0.0000 Press    =      -416.1486 
Volume   =       821.9626 
---------------- Step      690 ----- CPU =      0.0849 (sec) ----------------
TotEng   =        64.5830 KinEng   =         0.0000 Temp     =         0.0000 
PotEng   =        64.5830 E_bond   =         6.2180 E_angle  =        24.1740 
E_dihed  =         9.2478 E_impro  =         0.0000 E_vdwl   =        25.1891 
E_coul   =        -0.2459 E_long   =         0.0000 Press    =      -272.5230 
Volume   =       821.9626 
---------------- Step      700 ----- CPU =      0.0894 (sec) ----------------
TotEng   =        64.2188 KinEng   =         0.0000 Temp     =         0.0000 
PotEng   =        64.2188 E_bond   =         6.0614 E_angle  =        24.0901 
E_dihed  =         8.9936 E_impro  =         0.0000 E_vdwl   =        25.3140 
E_coul   =        -0.2403 E_long   =         0.0000 Press    =       -63.5936 
Volume   =       905.0404 
---------------- Step      710 ----- CPU =      0.0938 (sec) ----------------
TotEng   =        64.0600 KinEng   =         0.0000 Temp     =         0.0000 
PotEng   =        64.0600 E_bond   =         6.0969 E_angle  =        23.7775 
E_dihed  =         8.7963 E_impro  =         0.0000 E_vdwl   =        25.6431 
E_coul   =        -0.2537 E_long   =         0.0000 Press    =       234.8143 
Volume   =       905.0404 
---------------- Step      720 ----- CPU =      0.0981 (sec) ----------------
TotEng   =        63.8438 KinEng   =         0.0000 Temp     =         0.0000 
PotEng   =        63.8438 E_bond   =         6.1463 E_angle  =        23.7104 
E_dihed  =         8.4938 E_impro  =         0.0000 E_vdwl   =        25.7422 
E_coul   =        -0.2488 E_long   =         0.0000 Press    =       -19.8530 
Volume   =       905.0404 
---------------- Step      730 ----- CPU =      0.1026 (sec) ----------------
TotEng   =        63.6716 KinEng   =         0.0000 Temp     =         0.0000 
PotEng   =        63.6716 E_bond   =         6.0729 E_angle  =        23.8503 
E_dihed  =         8.2697 E_impro  =         0.0000 E_vdwl   =        25.7259 
E_coul   =        -0.2472 E_long   =         0.0000 Press    =       -38.1409 
Volume   =       905.0404 
---------------- Step      734 ----- CPU =      0.1047 (sec) ----------------
TotEng   =        63.5942 KinEng   =         0.0000 Temp     =         0.0000 
PotEng   =        63.5942 E_bond   =         6.1051 E_angle  =        23.5601 
E_dihed  =         8.2065 E_impro  =         0.0000 E_vdwl   =        25.9614 
E_coul   =        -0.2389 E_long   =         0.0000 Press    =       212.6701 
Volume   =       905.0404 
Loop time of 0.104676 on 1 procs for 234 steps with 66 atoms

Minimization stats:
  Stopping criterion = energy tolerance
  Energy initial, next-to-last, final = 
         76.5288137362      63.6000825751      63.5942327694
  Force two-norm initial, final = 5.34013 4.42599
  Force max component initial, final = 1.28168 1.10473
  Final line search alpha, max atom move = 0.012772 0.0141096
  Iterations, force evaluations = 234 467

Pair  time (%) = 0.0797682 (76.2048)
Bond  time (%) = 0.0215302 (20.5684)
Neigh time (%) = 0.000423193 (0.404288)
Comm  time (%) = 7.4625e-05 (0.0712914)
Outpt time (%) = 0.00123358 (1.17847)
Other time (%) = 0.00164628 (1.57274)

Nlocal:    66 ave 66 max 66 min
Histogram: 1 0 0 0 0 0 0 0 0 0
Nghost:    0 ave 0 max 0 min
Histogram: 1 0 0 0 0 0 0 0 0 0
Neighs:    1918 ave 1918 max 1918 min
Histogram: 1 0 0 0 0 0 0 0 0 0

Total # of neighbors = 1918
Ave neighs/atom = 29.0606
Ave special neighs/atom = 5.60606
Neighbor list builds = 5
Dangerous builds = 0
#now minimize the entire system
minimize        1.0e-4 1.0e-4 500 5000
WARNING: Resetting reneighboring criteria during minimization (../min.cpp:168)
Memory usage per processor = 14.6061 Mbytes
---------------- Step      734 ----- CPU =      0.0000 (sec) ----------------
TotEng   =        63.5942 KinEng   =         0.0000 Temp     =         0.0000 
PotEng   =        63.5942 E_bond   =         6.1051 E_angle  =        23.5601 
E_dihed  =         8.2065 E_impro  =         0.0000 E_vdwl   =        25.9614 
E_coul   =        -0.2389 E_long   =         0.0000 Press    =       208.6729 
Volume   =       922.3764 
---------------- Step      740 ----- CPU =      0.0026 (sec) ----------------
TotEng   =        63.5323 KinEng   =         0.0000 Temp     =         0.0000 
PotEng   =        63.5323 E_bond   =         6.1081 E_angle  =        23.6132 
E_dihed  =         8.1822 E_impro  =         0.0000 E_vdwl   =        25.8671 
E_coul   =        -0.2384 E_long   =         0.0000 Press    =       262.0237 
Volume   =       922.3764 
---------------- Step      745 ----- CPU =      0.0159 (sec) ----------------
TotEng   =        63.4845 KinEng   =         0.0000 Temp     =         0.0000 
PotEng   =        63.4845 E_bond   =         6.0734 E_angle  =        23.7034 
E_dihed  =         8.1631 E_impro  =         0.0000 E_vdwl   =        25.7952 
E_coul   =        -0.2506 E_long   =         0.0000 Press    =       129.6472 
Volume   =       922.3764 
Loop time of 0.015909 on 1 procs for 11 steps with 66 atoms

Minimization stats:
  Stopping criterion = linesearch alpha is zero
  Energy initial, next-to-last, final = 
         63.5942327694       63.484465003       63.484465003
  Force two-norm initial, final = 4.42599 3.093
  Force max component initial, final = 1.10473 0.833936
  Final line search alpha, max atom move = 7.75046e-10 6.46339e-10
  Iterations, force evaluations = 11 72

Pair  time (%) = 0.0122249 (76.843)
Bond  time (%) = 0.00337601 (21.2208)
Neigh time (%) = 0 (0)
Comm  time (%) = 1.3113e-05 (0.0824254)
Outpt time (%) = 1.28746e-05 (0.0809268)
Other time (%) = 0.000282049 (1.7729)

Nlocal:    66 ave 66 max 66 min
Histogram: 1 0 0 0 0 0 0 0 0 0
Nghost:    0 ave 0 max 0 min
Histogram: 1 0 0 0 0 0 0 0 0 0
Neighs:    1918 ave 1918 max 1918 min
Histogram: 1 0 0 0 0 0 0 0 0 0

Total # of neighbors = 1918
Ave neighs/atom = 29.0606
Ave special neighs/atom = 5.60606
Neighbor list builds = 0
Dangerous builds = 0
undump          1

Please see the log.cite file for references relevant to this simulation

