ITEM: TIMESTEP
0
ITEM: NUMBER OF ATOMS
34
ITEM: BOX BOUNDS ss ss ss
-3.58635 4.0294
-2.87078 2.76452
-2.03237 2.14663
ITEM: ATOMS id type xs ys zs ix iy iz
1 3 0.930268 0.776647 0.574757 0 0 0
2 3 0.733473 0.773668 0.662032 0 0 0
3 1 0.947777 0.820847 0.322525 0 0 0
4 1 0.988675 0.603013 0.620529 0 0 0
5 1 0.998687 0.908993 0.719107 0 0 0
6 4 0.637243 0.596563 0.462357 0 0 0
7 1 0.679174 0.951344 0.626932 0 0 0
8 1 0.721299 0.732172 0.916523 0 0 0
9 3 0.581224 0.367959 0.612213 0 0 0
10 3 0.418082 0.385254 0.832544 0 0 0
11 1 0.557438 0.235033 0.426784 0 0 0
12 1 0.691031 0.301432 0.754757 0 0 0
13 4 0.253157 0.37851 0.652067 0 0 0
14 1 0.421987 0.548118 0.973513 0 0 0
15 1 0.417226 0.23499 0.997607 0 0 0
16 2 0.153223 0.381738 0.815331 0 0 0
17 3 0.555002 0.67817 0.157583 0 0 0
18 3 0.382205 0.821202 0.203101 0 0 0
19 1 0.532411 0.525083 0.00239292 0 0 0
20 1 0.649638 0.789841 0.0308997 0 0 0
21 4 0.23248 0.705787 0.0460804 0 0 0
22 1 0.39604 0.998225 0.0998636 0 0 0
23 1 0.351716 0.842612 0.456549 0 0 0
24 2 0.12166 0.790036 0.124628 0 0 0
25 2 0.226558 0.535737 0.130225 0 0 0
26 3 0.49731 0.192025 0.533853 0 0 0
27 3 0.315876 0.306527 0.551945 0 0 0
28 1 0.516527 0.0645378 0.729347 0 0 0
29 1 0.60093 0.326153 0.552793 0 0 0
30 4 0.177132 0.129998 0.512249 0 0 0
31 1 0.301763 0.436912 0.358162 0 0 0
32 1 0.303358 0.407655 0.778466 0 0 0
33 2 0.00131307 0.230263 0.5391 0 0 0
34 2 0.192341 0.00177453 0.682058 0 0 0
ITEM: TIMESTEP
25
ITEM: NUMBER OF ATOMS
34
ITEM: BOX BOUNDS ss ss ss
-3.51616 4.02943
-2.88879 2.76634
-2.04783 2.32307
ITEM: ATOMS id type xs ys zs ix iy iz
1 3 0.930439 0.777797 0.552427 0 0 0
2 3 0.734336 0.78314 0.637992 0 0 0
3 1 0.947478 0.821294 0.311661 0 0 0
4 1 0.988437 0.604052 0.59682 0 0 0
5 1 0.998905 0.909026 0.690995 0 0 0
6 4 0.638792 0.632349 0.442179 0 0 0
7 1 0.676638 0.953729 0.603323 0 0 0
8 1 0.725262 0.743421 0.885371 0 0 0
9 3 0.58429 0.46027 0.59628 0 0 0
10 3 0.467478 0.407199 0.862565 0 0 0
11 1 0.553434 0.310014 0.230277 0 0 0
12 1 0.682876 0.350974 0.811832 0 0 0
13 4 0.267802 0.340565 0.616828 0 0 0
14 1 0.471654 0.574817 0.964298 0 0 0
15 1 0.422457 0.249448 1.01874 0 0 0
16 2 0.102234 0.359315 0.767338 0 0 0
17 3 0.555013 0.695078 0.147569 0 0 0
18 3 0.376397 0.828429 0.194925 0 0 0
19 1 0.533676 0.550919 -0.0185316 0 0 0
20 1 0.64841 0.79391 0.0301021 0 0 0
21 4 0.220721 0.721907 0.0346331 0 0 0
22 1 0.390669 1.00076 0.0986825 0 0 0
23 1 0.345378 0.843832 0.439378 0 0 0
24 2 0.112087 0.793987 0.123129 0 0 0
25 2 0.197239 0.55246 0.0957495 0 0 0
26 3 0.431786 0.11335 0.54158 0 0 0
27 3 0.25569 0.312491 0.510584 0 0 0
28 1 0.505677 0.025744 0.717084 0 0 0
29 1 0.674771 0.15144 0.468226 0 0 0
30 4 0.125029 0.0509881 0.45042 0 0 0
31 1 0.343514 0.427478 0.248016 0 0 0
32 1 0.21697 0.501567 0.976904 0 0 0
33 2 0.0144416 0.188035 0.504113 0 0 0
34 2 0.181225 -0.0050324 0.661127 0 0 0
ITEM: TIMESTEP
50
ITEM: NUMBER OF ATOMS
34
ITEM: BOX BOUNDS ss ss ss
-3.49253 4.08479
-2.94522 2.86173
-2.1781 2.5848
ITEM: ATOMS id type xs ys zs ix iy iz
1 3 0.932244 0.784651 0.533475 0 0 0
2 3 0.737817 0.817205 0.616926 0 0 0
3 1 0.949261 0.819025 0.310267 0 0 0
4 1 0.978174 0.60903 0.576451 0 0 0
5 1 1.01023 0.903735 0.65766 0 0 0
6 4 0.630157 0.66175 0.449436 0 0 0
7 1 0.687578 0.989642 0.586031 0 0 0
8 1 0.726438 0.776275 0.841699 0 0 0
9 3 0.618617 0.440561 0.593646 0 0 0
10 3 0.482452 0.411692 0.843836 0 0 0
11 1 0.605498 0.351181 0.398003 0 0 0
12 1 0.740481 0.370762 0.677307 0 0 0
13 4 0.363183 0.220161 0.822709 0 0 0
14 1 0.425683 0.574371 0.923788 0 0 0
15 1 0.533691 0.324009 1.0278 0 0 0
16 2 0.230888 0.249665 0.867114 0 0 0
17 3 0.549783 0.717024 0.161741 0 0 0
18 3 0.366607 0.834863 0.197703 0 0 0
19 1 0.533333 0.566734 0.0237363 0 0 0
20 1 0.64034 0.828824 0.0447563 0 0 0
21 4 0.211456 0.744264 0.0430912 0 0 0
22 1 0.380077 1.01208 0.127444 0 0 0
23 1 0.333551 0.837408 0.420395 0 0 0
24 2 0.103336 0.818382 0.134697 0 0 0
25 2 0.192576 0.573129 0.075691 0 0 0
26 3 0.37944 0.0952275 0.559842 0 0 0
27 3 0.236829 0.270685 0.434052 0 0 0
28 1 0.385818 -0.0380728 0.721376 0 0 0
29 1 0.495064 0.0531005 0.440398 0 0 0
30 4 0.0947437 0.109652 0.409256 0 0 0
31 1 0.296292 0.340599 0.244724 0 0 0
32 1 0.188668 0.430414 0.544692 0 0 0
33 2 -0.0144346 0.193279 0.477913 0 0 0
34 2 0.120963 -0.00215916 0.571168 0 0 0
ITEM: TIMESTEP
75
ITEM: NUMBER OF ATOMS
34
ITEM: BOX BOUNDS ss ss ss
-3.66532 4.21561
-3.35293 2.97505
-2.00237 2.7646
ITEM: ATOMS id type xs ys zs ix iy iz
1 3 0.925256 0.80301 0.492658 0 0 0
2 3 0.738054 0.837633 0.577859 0 0 0
3 1 0.940847 0.831128 0.268484 0 0 0
4 1 0.967803 0.642801 0.538494 0 0 0
5 1 1.00595 0.911264 0.609902 0 0 0
6 4 0.623673 0.684024 0.438703 0 0 0
7 1 0.698428 0.998382 0.531221 0 0 0
8 1 0.726958 0.815809 0.805426 0 0 0
9 3 0.630128 0.467751 0.551353 0 0 0
10 3 0.508237 0.436467 0.809954 0 0 0
11 1 0.607669 0.363849 0.376476 0 0 0
12 1 0.756292 0.422699 0.623585 0 0 0
13 4 0.399728 0.247876 0.820202 0 0 0
14 1 0.428828 0.576851 0.838373 0 0 0
15 1 0.585364 0.424296 0.999217 0 0 0
16 2 0.282847 0.300659 0.886182 0 0 0
17 3 0.54886 0.729891 0.151216 0 0 0
18 3 0.374661 0.84252 0.1752 0 0 0
19 1 0.534528 0.584677 0.0287714 0 0 0
20 1 0.636409 0.828582 0.0317853 0 0 0
21 4 0.236907 0.754236 0.0014917 0 0 0
22 1 0.388661 1.00761 0.111994 0 0 0
23 1 0.330544 0.839976 0.391724 0 0 0
24 2 0.12722 0.822757 0.072237 0 0 0
25 2 0.225689 0.597091 0.0451502 0 0 0
26 3 0.362437 0.134413 0.557505 0 0 0
27 3 0.239334 0.270286 0.37888 0 0 0
28 1 0.308058 -0.0157925 0.620943 0 0 0
29 1 0.475613 0.0872995 0.441855 0 0 0
30 4 0.0803148 0.154344 0.348439 0 0 0
31 1 0.293661 0.306487 0.173734 0 0 0
32 1 0.208869 0.42115 0.480151 0 0 0
33 2 -0.0127135 0.254516 0.414423 0 0 0
34 2 0.0851453 0.0387542 0.497894 0 0 0
ITEM: TIMESTEP
100
ITEM: NUMBER OF ATOMS
34
ITEM: BOX BOUNDS ss ss ss
-3.66532 4.21561
-3.35293 2.97505
-2.00237 2.7646
ITEM: ATOMS id type xs ys zs ix iy iz
1 3 0.927821 0.81008 0.490289 0 0 0
2 3 0.740503 0.841366 0.576935 0 0 0
3 1 0.942619 0.836785 0.265749 0 0 0
4 1 0.971717 0.650672 0.538498 0 0 0
5 1 1.00792 0.920718 0.60488 0 0 0
6 4 0.626117 0.68612 0.440041 0 0 0
7 1 0.700247 1.00201 0.525134 0 0 0
8 1 0.73005 0.824187 0.80441 0 0 0
9 3 0.632222 0.465386 0.551285 0 0 0
10 3 0.510495 0.436288 0.805306 0 0 0
11 1 0.606571 0.360295 0.377874 0 0 0
12 1 0.759522 0.4226 0.619624 0 0 0
13 4 0.405296 0.241834 0.821656 0 0 0
14 1 0.425358 0.571828 0.823685 0 0 0
15 1 0.586385 0.435144 0.997411 0 0 0
16 2 0.292361 0.289621 0.907365 0 0 0
17 3 0.549807 0.731195 0.158186 0 0 0
18 3 0.375297 0.845564 0.181665 0 0 0
19 1 0.533789 0.586057 0.0366747 0 0 0
20 1 0.636691 0.829588 0.0357073 0 0 0
21 4 0.242353 0.755584 0.00137011 0 0 0
22 1 0.389831 1.01117 0.122699 0 0 0
23 1 0.32918 0.83979 0.397215 0 0 0
24 2 0.130529 0.824526 0.0616456 0 0 0
25 2 0.231126 0.598902 0.0489249 0 0 0
26 3 0.357875 0.128943 0.56257 0 0 0
27 3 0.235574 0.262457 0.378305 0 0 0
28 1 0.297945 -0.0176722 0.629936 0 0 0
29 1 0.468925 0.0772933 0.444707 0 0 0
30 4 0.0730601 0.153892 0.342689 0 0 0
31 1 0.291513 0.291788 0.172458 0 0 0
32 1 0.209423 0.415799 0.474797 0 0 0
33 2 -0.0185284 0.258318 0.40392 0 0 0
34 2 0.0706714 0.035167 0.487868 0 0 0
ITEM: TIMESTEP
125
ITEM: NUMBER OF ATOMS
34
ITEM: BOX BOUNDS ss ss ss
-3.66532 4.21561
-3.35293 2.97505
-2.00237 2.7646
ITEM: ATOMS id type xs ys zs ix iy iz
1 3 0.929565 0.814888 0.488572 0 0 0
2 3 0.742119 0.84362 0.575698 0 0 0
3 1 0.943702 0.840474 0.263544 0 0 0
4 1 0.974815 0.656502 0.538745 0 0 0
5 1 1.00875 0.927993 0.600928 0 0 0
6 4 0.628874 0.685657 0.44054 0 0 0
7 1 0.700832 1.00338 0.522395 0 0 0
8 1 0.732125 0.827735 0.80358 0 0 0
9 3 0.633449 0.465052 0.549777 0 0 0
10 3 0.509787 0.435995 0.802183 0 0 0
11 1 0.605966 0.358272 0.378315 0 0 0
12 1 0.760741 0.421666 0.618798 0 0 0
13 4 0.409712 0.238099 0.822251 0 0 0
14 1 0.421107 0.568412 0.811624 0 0 0
15 1 0.584262 0.443229 0.995426 0 0 0
16 2 0.299728 0.279455 0.92305 0 0 0
17 3 0.550542 0.732414 0.160036 0 0 0
18 3 0.376648 0.8465 0.186458 0 0 0
19 1 0.534089 0.586917 0.0396108 0 0 0
20 1 0.636938 0.830481 0.0368563 0 0 0
21 4 0.245796 0.757145 0.00124117 0 0 0
22 1 0.390951 1.01318 0.131742 0 0 0
23 1 0.329207 0.837573 0.401071 0 0 0
24 2 0.133324 0.826866 0.0553824 0 0 0
25 2 0.23391 0.600743 0.0503869 0 0 0
26 3 0.354731 0.125538 0.565619 0 0 0
27 3 0.233342 0.258402 0.379127 0 0 0
28 1 0.292002 -0.01808 0.637334 0 0 0
29 1 0.464121 0.0704115 0.445928 0 0 0
30 4 0.0693195 0.153123 0.339463 0 0 0
31 1 0.290263 0.284834 0.173222 0 0 0
32 1 0.208691 0.412729 0.473134 0 0 0
33 2 -0.0217526 0.259979 0.395667 0 0 0
34 2 0.0626015 0.0341067 0.483776 0 0 0
ITEM: TIMESTEP
150
ITEM: NUMBER OF ATOMS
34
ITEM: BOX BOUNDS ss ss ss
-3.66532 4.21561
-3.35293 2.97505
-2.00237 2.7646
ITEM: ATOMS id type xs ys zs ix iy iz
1 3 0.931725 0.821133 0.486181 0 0 0
2 3 0.744149 0.844788 0.574662 0 0 0
3 1 0.944857 0.844778 0.260645 0 0 0
4 1 0.979388 0.664228 0.539308 0 0 0
5 1 1.00917 0.937808 0.595489 0 0 0
6 4 0.633192 0.685446 0.437402 0 0 0
7 1 0.700725 1.00418 0.520912 0 0 0
8 1 0.734676 0.829282 0.802148 0 0 0
9 3 0.634336 0.463314 0.549201 0 0 0
10 3 0.507692 0.437509 0.795383 0 0 0
11 1 0.606213 0.355973 0.378057 0 0 0
12 1 0.761091 0.420121 0.620577 0 0 0
13 4 0.415795 0.232496 0.822144 0 0 0
14 1 0.413036 0.563143 0.791396 0 0 0
15 1 0.577758 0.456765 0.991822 0 0 0
16 2 0.31169 0.264148 0.943301 0 0 0
17 3 0.552669 0.73262 0.161579 0 0 0
18 3 0.378458 0.846738 0.192198 0 0 0
19 1 0.535365 0.587811 0.0402164 0 0 0
20 1 0.637519 0.832021 0.0363794 0 0 0
21 4 0.250041 0.760707 0.000814261 0 0 0
22 1 0.39302 1.01467 0.146448 0 0 0
23 1 0.330302 0.831257 0.40581 0 0 0
24 2 0.137358 0.832223 0.049541 0 0 0
25 2 0.235866 0.604355 0.0490711 0 0 0
26 3 0.35156 0.121813 0.570126 0 0 0
27 3 0.230287 0.254647 0.382093 0 0 0
28 1 0.285565 -0.0182061 0.647537 0 0 0
29 1 0.457658 0.0617542 0.446513 0 0 0
30 4 0.0662588 0.150728 0.336265 0 0 0
31 1 0.288756 0.281163 0.177443 0 0 0
32 1 0.205397 0.408621 0.47625 0 0 0
33 2 -0.0252142 0.260452 0.380625 0 0 0
34 2 0.0539038 0.034804 0.483944 0 0 0
ITEM: TIMESTEP
175
ITEM: NUMBER OF ATOMS
34
ITEM: BOX BOUNDS ss ss ss
-3.66532 4.21561
-3.35293 2.97505
-2.00237 2.7646
ITEM: ATOMS id type xs ys zs ix iy iz
1 3 0.934872 0.829575 0.483472 0 0 0
2 3 0.746994 0.844918 0.572434 0 0 0
3 1 0.946741 0.851185 0.2572 0 0 0
4 1 0.987105 0.675644 0.539811 0 0 0
5 1 1.00873 0.951729 0.589267 0 0 0
6 4 0.641776 0.681468 0.430654 0 0 0
7 1 0.699494 1.00267 0.522053 0 0 0
8 1 0.738001 0.826025 0.799883 0 0 0
9 3 0.636632 0.462274 0.545959 0 0 0
10 3 0.503091 0.439814 0.783761 0 0 0
11 1 0.610042 0.351797 0.37674 0 0 0
12 1 0.76103 0.417771 0.627956 0 0 0
13 4 0.426413 0.2274 0.820155 0 0 0
14 1 0.4017 0.554941 0.756712 0 0 0
15 1 0.564612 0.478898 0.982437 0 0 0
16 2 0.332262 0.245088 0.966105 0 0 0
17 3 0.555445 0.73215 0.159427 0 0 0
18 3 0.38229 0.84472 0.200844 0 0 0
19 1 0.537028 0.587524 0.0380165 0 0 0
20 1 0.637972 0.832799 0.0325757 0 0 0
21 4 0.255268 0.771103 -0.00220519 0 0 0
22 1 0.397664 1.01511 0.174616 0 0 0
23 1 0.332132 0.81624 0.41051 0 0 0
24 2 0.143762 0.845471 0.0452377 0 0 0
25 2 0.236515 0.613884 0.0364069 0 0 0
26 3 0.348033 0.117447 0.576879 0 0 0
27 3 0.224123 0.250865 0.394859 0 0 0
28 1 0.280604 -0.017758 0.665074 0 0 0
29 1 0.448104 0.0517141 0.444641 0 0 0
30 4 0.0656579 0.138504 0.332952 0 0 0
31 1 0.284409 0.291526 0.195644 0 0 0
32 1 0.189573 0.397175 0.500603 0 0 0
33 2 -0.0279235 0.25064 0.330402 0 0 0
34 2 0.0401091 0.0429741 0.500398 0 0 0
ITEM: TIMESTEP
200
ITEM: NUMBER OF ATOMS
34
ITEM: BOX BOUNDS ss ss ss
-3.83136 4.28285
-3.48794 3.07384
-2.04977 2.67497
ITEM: ATOMS id type xs ys zs ix iy iz
1 3 0.930209 0.825653 0.496716 0 0 0
2 3 0.747282 0.834445 0.584934 0 0 0
3 1 0.941976 0.84697 0.268548 0 0 0
4 1 0.983695 0.678708 0.553952 0 0 0
5 1 0.999196 0.945666 0.604117 0 0 0
6 4 0.649269 0.674836 0.437409 0 0 0
7 1 0.698481 0.985661 0.535608 0 0 0
8 1 0.738221 0.814418 0.813955 0 0 0
9 3 0.641485 0.464379 0.55792 0 0 0
10 3 0.509648 0.445562 0.793998 0 0 0
11 1 0.616514 0.356482 0.3882 0 0 0
12 1 0.761377 0.42179 0.644706 0 0 0
13 4 0.440436 0.238602 0.837882 0 0 0
14 1 0.408794 0.551476 0.757437 0 0 0
15 1 0.565945 0.490906 0.99432 0 0 0
16 2 0.354112 0.253143 0.994312 0 0 0
17 3 0.561137 0.724512 0.168833 0 0 0
18 3 0.394058 0.834614 0.216847 0 0 0
19 1 0.540558 0.585148 0.0473541 0 0 0
20 1 0.639777 0.821144 0.0372714 0 0 0
21 4 0.271909 0.776083 0.00278806 0 0 0
22 1 0.411534 0.999399 0.206864 0 0 0
23 1 0.343032 0.797709 0.42371 0 0 0
24 2 0.164223 0.848077 0.0540509 0 0 0
25 2 0.250999 0.623438 0.0279533 0 0 0
26 3 0.356906 0.132729 0.599742 0 0 0
27 3 0.230658 0.260993 0.428296 0 0 0
28 1 0.293731 0.00278398 0.694959 0 0 0
29 1 0.449417 0.069588 0.456614 0 0 0
30 4 0.0873592 0.139729 0.342867 0 0 0
31 1 0.289131 0.32155 0.237796 0 0 0
32 1 0.184626 0.388174 0.553654 0 0 0
33 2 -0.00143835 0.241259 0.281893 0 0 0
34 2 0.0439616 0.0707892 0.521968 0 0 0
ITEM: TIMESTEP
225
ITEM: NUMBER OF ATOMS
34
ITEM: BOX BOUNDS ss ss ss
-3.83136 4.28285
-3.48794 3.07384
-2.04977 2.67497
ITEM: ATOMS id type xs ys zs ix iy iz
1 3 0.930396 0.826322 0.496588 0 0 0
2 3 0.747341 0.834329 0.58428 0 0 0
3 1 0.942261 0.847854 0.268439 0 0 0
4 1 0.984234 0.679593 0.553751 0 0 0
5 1 0.998944 0.946598 0.60425 0 0 0
6 4 0.650034 0.674159 0.436544 0 0 0
7 1 0.698224 0.985305 0.535204 0 0 0
8 1 0.738207 0.814023 0.813392 0 0 0
9 3 0.641851 0.464205 0.557158 0 0 0
10 3 0.509747 0.445524 0.793337 0 0 0
11 1 0.616862 0.35592 0.387892 0 0 0
12 1 0.761646 0.421444 0.644554 0 0 0
13 4 0.441281 0.238549 0.838256 0 0 0
14 1 0.408665 0.55089 0.755508 0 0 0
15 1 0.56579 0.491998 0.993319 0 0 0
16 2 0.355661 0.252854 0.995943 0 0 0
17 3 0.561125 0.724224 0.168172 0 0 0
18 3 0.394516 0.834584 0.217282 0 0 0
19 1 0.540156 0.584712 0.0472184 0 0 0
20 1 0.639724 0.820484 0.0362413 0 0 0
21 4 0.272461 0.778231 0.00170296 0 0 0
22 1 0.412421 0.999438 0.209777 0 0 0
23 1 0.342927 0.796375 0.423229 0 0 0
24 2 0.164906 0.850178 0.0536479 0 0 0
25 2 0.251213 0.625459 0.0244949 0 0 0
26 3 0.356561 0.132542 0.601248 0 0 0
27 3 0.229484 0.260818 0.431838 0 0 0
28 1 0.293846 0.0026155 0.697322 0 0 0
29 1 0.448421 0.0695895 0.456688 0 0 0
30 4 0.0879117 0.138151 0.341771 0 0 0
31 1 0.28799 0.324889 0.243566 0 0 0
32 1 0.181557 0.385432 0.560128 0 0 0
33 2 -0.00019097 0.238636 0.274647 0 0 0
34 2 0.0420504 0.0704914 0.520088 0 0 0
ITEM: TIMESTEP
250
ITEM: NUMBER OF ATOMS
34
ITEM: BOX BOUNDS ss ss ss
-3.83136 4.28285
-3.48794 3.07384
-2.04977 2.67497
ITEM: ATOMS id type xs ys zs ix iy iz
1 3 0.930606 0.827336 0.496326 0 0 0
2 3 0.747435 0.833884 0.583566 0 0 0
3 1 0.942653 0.849142 0.268312 0 0 0
4 1 0.984975 0.680826 0.553444 0 0 0
5 1 0.998524 0.947899 0.604489 0 0 0
6 4 0.650967 0.673726 0.434448 0 0 0
7 1 0.697768 0.984834 0.534478 0 0 0
8 1 0.738138 0.813468 0.812401 0 0 0
9 3 0.642229 0.463366 0.556715 0 0 0
10 3 0.510104 0.445796 0.791963 0 0 0
11 1 0.617295 0.355133 0.38739 0 0 0
12 1 0.761955 0.420945 0.644164 0 0 0
13 4 0.44233 0.238216 0.838845 0 0 0
14 1 0.408461 0.549964 0.752883 0 0 0
15 1 0.565577 0.493511 0.991916 0 0 0
16 2 0.357949 0.252467 0.99834 0 0 0
17 3 0.561401 0.723386 0.16775 0 0 0
18 3 0.394937 0.834755 0.217666 0 0 0
19 1 0.539468 0.584064 0.0469678 0 0 0
20 1 0.639657 0.819489 0.0345519 0 0 0
21 4 0.273428 0.781544 7.30758e-05 0 0 0
22 1 0.413797 0.999391 0.214043 0 0 0
23 1 0.342749 0.794431 0.422362 0 0 0
24 2 0.165934 0.85344 0.0529388 0 0 0
25 2 0.251541 0.62863 0.0191522 0 0 0
26 3 0.356123 0.132398 0.603707 0 0 0
27 3 0.227717 0.260648 0.437116 0 0 0
28 1 0.293899 0.00242333 0.700862 0 0 0
29 1 0.446842 0.0696003 0.456916 0 0 0
30 4 0.0889843 0.136017 0.339908 0 0 0
31 1 0.286243 0.329975 0.252532 0 0 0
32 1 0.17711 0.381304 0.569724 0 0 0
33 2 0.00181438 0.234992 0.265259 0 0 0
34 2 0.0396093 0.0694144 0.516265 0 0 0
ITEM: TIMESTEP
275
ITEM: NUMBER OF ATOMS
34
ITEM: BOX BOUNDS ss ss ss
-3.83136 4.28285
-3.48794 3.07384
-2.04977 2.67497
ITEM: ATOMS id type xs ys zs ix iy iz
1 3 0.930982 0.830843 0.495295 0 0 0
2 3 0.747302 0.832406 0.579657 0 0 0
3 1 0.943848 0.854245 0.267679 0 0 0
4 1 0.987406 0.685429 0.551806 0 0 0
5 1 0.996316 0.952576 0.605688 0 0 0
6 4 0.654464 0.670139 0.427735 0 0 0
7 1 0.695702 0.982329 0.531177 0 0 0
8 1 0.737338 0.810906 0.808304 0 0 0
9 3 0.643491 0.461253 0.553221 0 0 0
10 3 0.510867 0.445929 0.788401 0 0 0
11 1 0.618073 0.351659 0.385628 0 0 0
12 1 0.762853 0.418399 0.642082 0 0 0
13 4 0.446361 0.237875 0.84205 0 0 0
14 1 0.407795 0.546811 0.744292 0 0 0
15 1 0.565218 0.498964 0.986596 0 0 0
16 2 0.366552 0.251459 1.00845 0 0 0
17 3 0.561501 0.720482 0.164201 0 0 0
18 3 0.397306 0.8352 0.218596 0 0 0
19 1 0.536111 0.580841 0.0461088 0 0 0
20 1 0.639291 0.81433 0.0273545 0 0 0
21 4 0.277835 0.796804 -0.00817847 0 0 0
22 1 0.419871 0.99892 0.231212 0 0 0
23 1 0.34124 0.786816 0.416615 0 0 0
24 2 0.170964 0.868697 0.048172 0 0 0
25 2 0.253197 0.643904 -0.00511089 0 0 0
26 3 0.353851 0.131723 0.614098 0 0 0
27 3 0.220695 0.259779 0.45974 0 0 0
28 1 0.294268 0.00149818 0.715358 0 0 0
29 1 0.440395 0.0702535 0.459058 0 0 0
30 4 0.0945466 0.129801 0.330483 0 0 0
31 1 0.278105 0.350405 0.292836 0 0 0
32 1 0.159286 0.362204 0.607907 0 0 0
33 2 0.0105949 0.224909 0.237723 0 0 0
34 2 0.0345967 0.0586283 0.493243 0 0 0
ITEM: TIMESTEP
300
ITEM: NUMBER OF ATOMS
34
ITEM: BOX BOUNDS ss ss ss
-3.83136 4.28285
-3.48794 3.07384
-2.04977 2.67497
ITEM: ATOMS id type xs ys zs ix iy iz
1 3 0.930581 0.83244 0.494166 0 0 0
2 3 0.746703 0.831063 0.576995 0 0 0
3 1 0.943871 0.857102 0.266865 0 0 0
4 1 0.988206 0.687616 0.549951 0 0 0
5 1 0.99442 0.954667 0.606153 0 0 0
6 4 0.655775 0.66761 0.42373 0 0 0
7 1 0.694021 0.980381 0.528856 0 0 0
8 1 0.736428 0.809039 0.805513 0 0 0
9 3 0.643611 0.459664 0.551405 0 0 0
10 3 0.511374 0.446012 0.787737 0 0 0
11 1 0.617342 0.349387 0.385004 0 0 0
12 1 0.762951 0.416319 0.640004 0 0 0
13 4 0.448086 0.238002 0.845458 0 0 0
14 1 0.407794 0.545808 0.742191 0 0 0
15 1 0.565901 0.501402 0.984494 0 0 0
16 2 0.370543 0.251722 1.01497 0 0 0
17 3 0.561173 0.718045 0.161727 0 0 0
18 3 0.398767 0.835722 0.218095 0 0 0
19 1 0.533063 0.578178 0.045906 0 0 0
20 1 0.638998 0.809775 0.0222878 0 0 0
21 4 0.282172 0.810135 -0.0163985 0 0 0
22 1 0.424357 0.997932 0.244051 0 0 0
23 1 0.338824 0.781185 0.409539 0 0 0
24 2 0.175895 0.882941 0.0409629 0 0 0
25 2 0.254634 0.65815 -0.0262753 0 0 0
26 3 0.352762 0.131283 0.621365 0 0 0
27 3 0.21618 0.258439 0.475238 0 0 0
28 1 0.295555 -3.96568e-05 0.723892 0 0 0
29 1 0.437137 0.0718648 0.461398 0 0 0
30 4 0.0993771 0.127661 0.323516 0 0 0
31 1 0.271535 0.362811 0.322513 0 0 0
32 1 0.147948 0.346865 0.631867 0 0 0
33 2 0.0147124 0.221793 0.230741 0 0 0
34 2 0.0375223 0.0454409 0.473556 0 0 0
ITEM: TIMESTEP
325
ITEM: NUMBER OF ATOMS
34
ITEM: BOX BOUNDS ss ss ss
-3.83136 4.28285
-3.48794 3.07384
-2.04977 2.67497
ITEM: ATOMS id type xs ys zs ix iy iz
1 3 0.930469 0.832583 0.493857 0 0 0
2 3 0.746586 0.830854 0.576565 0 0 0
3 1 0.943769 0.857458 0.266589 0 0 0
4 1 0.988261 0.687839 0.54946 0 0 0
5 1 0.994132 0.954867 0.60605 0 0 0
6 4 0.655872 0.667157 0.423286 0 0 0
7 1 0.693764 0.980055 0.528544 0 0 0
8 1 0.736319 0.808727 0.805106 0 0 0
9 3 0.643575 0.459477 0.551143 0 0 0
10 3 0.51144 0.446011 0.787912 0 0 0
11 1 0.617101 0.349054 0.385009 0 0 0
12 1 0.762931 0.41597 0.639641 0 0 0
13 4 0.448261 0.238124 0.846183 0 0 0
14 1 0.407853 0.545817 0.742293 0 0 0
15 1 0.566151 0.501667 0.98436 0 0 0
16 2 0.370933 0.251924 1.01601 0 0 0
17 3 0.561038 0.717673 0.161325 0 0 0
18 3 0.398985 0.835818 0.217967 0 0 0
19 1 0.5325 0.577724 0.0459626 0 0 0
20 1 0.638932 0.808971 0.0215468 0 0 0
21 4 0.283185 0.812979 -0.0182922 0 0 0
22 1 0.425106 0.997667 0.246877 0 0 0
23 1 0.338101 0.779917 0.407781 0 0 0
24 2 0.177043 0.886099 0.0389807 0 0 0
25 2 0.254977 0.661284 -0.030896 0 0 0
26 3 0.352661 0.131193 0.622539 0 0 0
27 3 0.215399 0.25805 0.477861 0 0 0
28 1 0.296043 -0.000482326 0.725108 0 0 0
29 1 0.436802 0.0723583 0.461801 0 0 0
30 4 0.100191 0.127188 0.322615 0 0 0
31 1 0.270228 0.364661 0.327543 0 0 0
32 1 0.146046 0.343948 0.635782 0 0 0
33 2 0.0150942 0.221113 0.230628 0 0 0
34 2 0.0384686 0.0426707 0.47034 0 0 0
ITEM: TIMESTEP
334
ITEM: NUMBER OF ATOMS
34
ITEM: BOX BOUNDS ss ss ss
-3.83136 4.28285
-3.48794 3.07384
-2.04977 2.67497
ITEM: ATOMS id type xs ys zs ix iy iz
1 3 0.930002 0.833002 0.492252 0 0 0
2 3 0.746159 0.82985 0.57497 0 0 0
3 1 0.943184 0.858699 0.265138 0 0 0
4 1 0.98842 0.688491 0.547037 0 0 0
5 1 0.993094 0.955405 0.605177 0 0 0
6 4 0.655989 0.665705 0.421479 0 0 0
7 1 0.692862 0.978818 0.527471 0 0 0
8 1 0.736084 0.807467 0.803492 0 0 0
9 3 0.64325 0.458526 0.550511 0 0 0
10 3 0.511727 0.446224 0.788574 0 0 0
11 1 0.616013 0.347848 0.385092 0 0 0
12 1 0.76273 0.414638 0.638215 0 0 0
13 4 0.448834 0.238578 0.849373 0 0 0
14 1 0.408059 0.545977 0.742938 0 0 0
15 1 0.56707 0.502771 0.983999 0 0 0
16 2 0.372383 0.25281 1.0203 0 0 0
17 3 0.560525 0.716069 0.160014 0 0 0
18 3 0.399609 0.836167 0.217229 0 0 0
19 1 0.530164 0.576054 0.0461758 0 0 0
20 1 0.638623 0.805883 0.0187984 0 0 0
21 4 0.28816 0.826055 -0.0267478 0 0 0
22 1 0.427783 0.995849 0.259929 0 0 0
23 1 0.33444 0.77411 0.399015 0 0 0
24 2 0.182531 0.900711 0.0295831 0 0 0
25 2 0.256987 0.676121 -0.052172 0 0 0
26 3 0.352361 0.130828 0.62761 0 0 0
27 3 0.211928 0.255782 0.489183 0 0 0
28 1 0.2984 -0.00255306 0.73009 0 0 0
29 1 0.435434 0.0747212 0.463477 0 0 0
30 4 0.10364 0.12508 0.319594 0 0 0
31 1 0.263839 0.371332 0.349079 0 0 0
32 1 0.138196 0.330941 0.651753 0 0 0
33 2 0.0162302 0.217626 0.231386 0 0 0
34 2 0.0435057 0.0308308 0.457462 0 0 0
ITEM: TIMESTEP
335
ITEM: NUMBER OF ATOMS
34
ITEM: BOX BOUNDS ss ss ss
-3.70966 4.23681
-3.5147 3.0566
-2.30627 2.78086
ITEM: ATOMS id type xs ys zs ix iy iz
1 3 0.934319 0.835874 0.50759 0 0 0
2 3 0.746597 0.83268 0.58446 0 0 0
3 1 0.947774 0.861525 0.296665 0 0 0
4 1 0.993969 0.691559 0.558477 0 0 0
5 1 0.99874 0.958087 0.612477 0 0 0
6 4 0.654506 0.668889 0.441793 0 0 0
7 1 0.692167 0.981482 0.540309 0 0 0
8 1 0.736311 0.81037 0.796658 0 0 0
9 3 0.641493 0.461856 0.5618 0 0 0
10 3 0.507243 0.449699 0.782768 0 0 0
11 1 0.613697 0.351423 0.408076 0 0 0
12 1 0.763508 0.418115 0.643158 0 0 0
13 4 0.442979 0.242272 0.839307 0 0 0
14 1 0.401356 0.549259 0.740445 0 0 0
15 1 0.563726 0.506115 0.964328 0 0 0
16 2 0.364933 0.256522 0.998047 0 0 0
17 3 0.557062 0.719063 0.199102 0 0 0
18 3 0.392716 0.839039 0.252165 0 0 0
19 1 0.526033 0.579288 0.0932955 0 0 0
20 1 0.636794 0.808794 0.0678621 0 0 0
21 4 0.278952 0.829004 0.0255329 0 0 0
22 1 0.421502 0.998477 0.291887 0 0 0
23 1 0.326158 0.777023 0.420978 0 0 0
24 2 0.171106 0.903543 0.077862 0 0 0
25 2 0.247114 0.679273 0.00187949 0 0 0
26 3 0.344494 0.13473 0.633348 0 0 0
27 3 0.201065 0.259442 0.504783 0 0 0
28 1 0.289396 0.00149652 0.728526 0 0 0
29 1 0.429314 0.0786903 0.480878 0 0 0
30 4 0.0905278 0.128964 0.347221 0 0 0
31 1 0.254071 0.374889 0.374677 0 0 0
32 1 0.125762 0.334483 0.655815 0 0 0
33 2 0.00125622 0.221363 0.26535 0 0 0
34 2 0.0291311 0.0348041 0.475285 0 0 0
ITEM: TIMESTEP
336
ITEM: NUMBER OF ATOMS
34
ITEM: BOX BOUNDS ss ss ss
-3.70968 4.2368
-3.51486 3.05659
-2.30671 2.78093
ITEM: ATOMS id type xs ys zs ix iy iz
1 3 0.934318 0.835867 0.507626 0 0 0
2 3 0.746597 0.832719 0.584458 0 0 0
3 1 0.947772 0.86153 0.296711 0 0 0
4 1 0.99397 0.691568 0.558496 0 0 0
5 1 0.998742 0.958088 0.612496 0 0 0
6 4 0.654517 0.668819 0.441915 0 0 0
7 1 0.692174 0.981469 0.540349 0 0 0
8 1 0.736314 0.810367 0.796676 0 0 0
9 3 0.641509 0.46194 0.56175 0 0 0
10 3 0.507215 0.449672 0.782835 0 0 0
11 1 0.613692 0.351431 0.408127 0 0 0
12 1 0.763512 0.418121 0.643188 0 0 0
13 4 0.442999 0.242329 0.839317 0 0 0
14 1 0.401358 0.54928 0.740454 0 0 0
15 1 0.563732 0.506133 0.964315 0 0 0
16 2 0.364932 0.256544 0.998049 0 0 0
17 3 0.557039 0.719105 0.199104 0 0 0
18 3 0.392729 0.839034 0.252234 0 0 0
19 1 0.526034 0.579293 0.093377 0 0 0
20 1 0.636791 0.808788 0.0679529 0 0 0
21 4 0.278974 0.829052 0.025576 0 0 0
22 1 0.421506 0.998477 0.291987 0 0 0
23 1 0.326138 0.777005 0.42099 0 0 0
24 2 0.171131 0.903601 0.0779138 0 0 0
25 2 0.247131 0.679338 0.00189813 0 0 0
26 3 0.344487 0.134725 0.633376 0 0 0
27 3 0.201059 0.259468 0.504849 0 0 0
28 1 0.289412 0.00151648 0.728552 0 0 0
29 1 0.429315 0.0787239 0.480923 0 0 0
30 4 0.0905319 0.128959 0.347267 0 0 0
31 1 0.25405 0.37491 0.374774 0 0 0
32 1 0.12574 0.334454 0.655877 0 0 0
33 2 0.00125446 0.221372 0.265428 0 0 0
34 2 0.0291559 0.0347953 0.475301 0 0 0
