ITEM: TIMESTEP
0
ITEM: NUMBER OF ATOMS
18
ITEM: BOX BOUNDS ss ss ss
-2.72407 2.48133
-2.3154 2.15062
-1.26051 1.52078
ITEM: ATOMS id type xs ys zs ix iy iz
1 3 0.837834 0.626059 0.396776 0 0 0
2 3 0.582532 0.759551 0.564357 0 0 0
3 1 0.849345 0.628481 0.00359545 0 0 0
4 1 0.864345 0.395074 0.519198 0 0 0
5 1 0.998079 0.757804 0.54017 0 0 0
6 4 0.357558 0.621244 0.339799 0 0 0
7 1 0.579139 0.997761 0.468207 0 0 0
8 1 0.570869 0.74965 0.962722 0 0 0
9 2 0.126622 0.796705 0.428898 0 0 0
10 3 0.713133 0.317027 0.430459 0 0 0
11 3 0.45783 0.45052 0.598039 0 0 0
12 1 0.724644 0.31945 0.0372777 0 0 0
13 1 0.873378 0.448773 0.573852 0 0 0
14 4 0.232856 0.312213 0.373481 0 0 0
15 1 0.454438 0.68873 0.501889 0 0 0
16 1 0.446167 0.440618 0.996405 0 0 0
17 2 0.00192108 0.487674 0.46258 0 0 0
18 2 0.195566 0.00223913 0.521046 0 0 0
ITEM: TIMESTEP
25
ITEM: NUMBER OF ATOMS
18
ITEM: BOX BOUNDS ss ss ss
-2.6026 2.5804
-2.271 2.27723
-1.42374 1.53769
ITEM: ATOMS id type xs ys zs ix iy iz
1 3 0.919465 0.663943 0.310058 0 0 0
2 3 0.640322 0.803981 0.515167 0 0 0
3 1 0.859973 0.668107 -0.0380361 0 0 0
4 1 0.993809 0.414274 0.342498 0 0 0
5 1 1.02832 0.78898 0.522962 0 0 0
6 4 0.427147 0.6458 0.245075 0 0 0
7 1 0.569859 1.02444 0.466152 0 0 0
8 1 0.631006 0.798877 0.918897 0 0 0
9 2 0.206659 0.721591 0.338139 0 0 0
10 3 0.558319 0.350147 0.474726 0 0 0
11 3 0.327755 0.3778 0.720713 0 0 0
12 1 0.628358 0.249393 0.126326 0 0 0
13 1 0.732093 0.354455 0.80218 0 0 0
14 4 0.142487 0.231228 0.471926 0 0 0
15 1 0.270101 0.589191 0.876828 0 0 0
16 1 0.397419 0.359238 1.03975 0 0 0
17 2 0.000809665 0.393326 0.493133 0 0 0
18 2 0.153139 0.01195 0.554058 0 0 0
ITEM: TIMESTEP
50
ITEM: NUMBER OF ATOMS
18
ITEM: BOX BOUNDS ss ss ss
-2.96145 3.10532
-2.29248 2.5834
-1.64385 1.86664
ITEM: ATOMS id type xs ys zs ix iy iz
1 3 0.87715 0.706274 0.309628 0 0 0
2 3 0.649098 0.788808 0.466291 0 0 0
3 1 0.875835 0.72863 0.000463732 0 0 0
4 1 0.91925 0.493266 0.371323 0 0 0
5 1 1.00467 0.834616 0.43469 0 0 0
6 4 0.494827 0.593053 0.286853 0 0 0
7 1 0.604373 0.995896 0.381757 0 0 0
8 1 0.639829 0.776889 0.777755 0 0 0
9 2 0.338824 0.671533 0.312708 0 0 0
10 3 0.503127 0.326632 0.482103 0 0 0
11 3 0.296866 0.314791 0.736479 0 0 0
12 1 0.509132 0.166289 0.263557 0 0 0
13 1 0.645275 0.291831 0.666898 0 0 0
14 4 0.132866 0.196631 0.483395 0 0 0
15 1 0.246308 0.520081 0.829637 0 0 0
16 1 0.326986 0.190431 0.988354 0 0 0
17 2 -0.0113603 0.29914 0.519041 0 0 0
18 2 0.116684 -0.00356991 0.562346 0 0 0
ITEM: TIMESTEP
75
ITEM: NUMBER OF ATOMS
18
ITEM: BOX BOUNDS ss ss ss
-2.96145 3.10532
-2.29248 2.5834
-1.64385 1.86664
ITEM: ATOMS id type xs ys zs ix iy iz
1 3 0.89278 0.723653 0.304861 0 0 0
2 3 0.659259 0.789673 0.452016 0 0 0
3 1 0.896585 0.746236 -0.00440709 0 0 0
4 1 0.938988 0.513364 0.375623 0 0 0
5 1 1.01266 0.862205 0.432315 0 0 0
6 4 0.503446 0.589057 0.288691 0 0 0
7 1 0.61187 0.994872 0.358 0 0 0
8 1 0.654317 0.787441 0.763896 0 0 0
9 2 0.348875 0.67218 0.307046 0 0 0
10 3 0.498323 0.32136 0.48984 0 0 0
11 3 0.286581 0.301176 0.730253 0 0 0
12 1 0.503456 0.159253 0.275103 0 0 0
13 1 0.641176 0.290325 0.675053 0 0 0
14 4 0.10945 0.193218 0.489586 0 0 0
15 1 0.239572 0.502867 0.839643 0 0 0
16 1 0.312013 0.164828 0.973101 0 0 0
17 2 -0.033299 0.289185 0.564865 0 0 0
18 2 0.0936836 -0.00967227 0.557794 0 0 0
ITEM: TIMESTEP
100
ITEM: NUMBER OF ATOMS
18
ITEM: BOX BOUNDS ss ss ss
-2.96145 3.10532
-2.29248 2.5834
-1.64385 1.86664
ITEM: ATOMS id type xs ys zs ix iy iz
1 3 0.901747 0.733846 0.303569 0 0 0
2 3 0.663942 0.787312 0.439707 0 0 0
3 1 0.910753 0.750244 -0.00624837 0 0 0
4 1 0.95675 0.52971 0.388107 0 0 0
5 1 1.01311 0.885198 0.428563 0 0 0
6 4 0.508039 0.57999 0.285816 0 0 0
7 1 0.612562 0.98817 0.335239 0 0 0
8 1 0.657567 0.792934 0.750824 0 0 0
9 2 0.354539 0.666344 0.293775 0 0 0
10 3 0.495257 0.316718 0.496185 0 0 0
11 3 0.280158 0.295614 0.733169 0 0 0
12 1 0.499897 0.15049 0.287717 0 0 0
13 1 0.636449 0.288061 0.685543 0 0 0
14 4 0.0932033 0.210685 0.496051 0 0 0
15 1 0.242599 0.493627 0.862829 0 0 0
16 1 0.300822 0.145247 0.960559 0 0 0
17 2 -0.0471667 0.276223 0.628688 0 0 0
18 2 0.0895038 0.000807658 0.503186 0 0 0
ITEM: TIMESTEP
125
ITEM: NUMBER OF ATOMS
18
ITEM: BOX BOUNDS ss ss ss
-2.96145 3.10532
-2.29248 2.5834
-1.64385 1.86664
ITEM: ATOMS id type xs ys zs ix iy iz
1 3 0.901481 0.734198 0.304572 0 0 0
2 3 0.662626 0.786035 0.437941 0 0 0
3 1 0.910897 0.7474 -0.00548567 0 0 0
4 1 0.957573 0.531497 0.393588 0 0 0
5 1 1.01128 0.887976 0.427191 0 0 0
6 4 0.508901 0.577339 0.28411 0 0 0
7 1 0.610738 0.986289 0.331332 0 0 0
8 1 0.655489 0.793239 0.749114 0 0 0
9 2 0.354802 0.662403 0.28777 0 0 0
10 3 0.495241 0.314948 0.498164 0 0 0
11 3 0.280938 0.296932 0.735612 0 0 0
12 1 0.499063 0.147611 0.291536 0 0 0
13 1 0.63691 0.287104 0.686846 0 0 0
14 4 0.0918457 0.219827 0.497786 0 0 0
15 1 0.246743 0.494213 0.870335 0 0 0
16 1 0.299272 0.143012 0.959381 0 0 0
17 2 -0.0475643 0.270872 0.644831 0 0 0
18 2 0.0934931 0.0103245 0.478654 0 0 0
ITEM: TIMESTEP
150
ITEM: NUMBER OF ATOMS
18
ITEM: BOX BOUNDS ss ss ss
-2.96145 3.10532
-2.29248 2.5834
-1.64385 1.86664
ITEM: ATOMS id type xs ys zs ix iy iz
1 3 0.900672 0.734624 0.306453 0 0 0
2 3 0.661029 0.784753 0.435282 0 0 0
3 1 0.911495 0.743287 -0.00380771 0 0 0
4 1 0.958657 0.534365 0.402234 0 0 0
5 1 1.00842 0.892202 0.425893 0 0 0
6 4 0.509642 0.572482 0.281442 0 0 0
7 1 0.60792 0.983239 0.324796 0 0 0
8 1 0.651888 0.793847 0.746042 0 0 0
9 2 0.355207 0.656362 0.27842 0 0 0
10 3 0.495763 0.312897 0.499942 0 0 0
11 3 0.281761 0.298225 0.740136 0 0 0
12 1 0.497483 0.143353 0.296627 0 0 0
13 1 0.637712 0.285332 0.687849 0 0 0
14 4 0.0903075 0.232961 0.501776 0 0 0
15 1 0.253236 0.49413 0.88225 0 0 0
16 1 0.297598 0.139361 0.957295 0 0 0
17 2 -0.0471023 0.262575 0.665295 0 0 0
18 2 0.0980465 0.0272249 0.445354 0 0 0
ITEM: TIMESTEP
175
ITEM: NUMBER OF ATOMS
18
ITEM: BOX BOUNDS ss ss ss
-2.96145 3.10532
-2.29248 2.5834
-1.64385 1.86664
ITEM: ATOMS id type xs ys zs ix iy iz
1 3 0.900053 0.735278 0.308672 0 0 0
2 3 0.658942 0.783179 0.432437 0 0 0
3 1 0.912241 0.739687 -0.0015932 0 0 0
4 1 0.959328 0.537213 0.410743 0 0 0
5 1 1.00546 0.896008 0.425379 0 0 0
6 4 0.510554 0.568771 0.2787 0 0 0
7 1 0.605219 0.980525 0.318265 0 0 0
8 1 0.648102 0.794663 0.743046 0 0 0
9 2 0.355398 0.650562 0.269965 0 0 0
10 3 0.495937 0.310364 0.501508 0 0 0
11 3 0.283413 0.298826 0.743752 0 0 0
12 1 0.496104 0.139679 0.300178 0 0 0
13 1 0.638884 0.283424 0.6875 0 0 0
14 4 0.0893253 0.244009 0.506148 0 0 0
15 1 0.259424 0.492834 0.893428 0 0 0
16 1 0.296792 0.135299 0.955097 0 0 0
17 2 -0.045786 0.257136 0.67905 0 0 0
18 2 0.100337 0.0437629 0.421005 0 0 0
ITEM: TIMESTEP
200
ITEM: NUMBER OF ATOMS
18
ITEM: BOX BOUNDS ss ss ss
-2.96145 3.10532
-2.29248 2.5834
-1.64385 1.86664
ITEM: ATOMS id type xs ys zs ix iy iz
1 3 0.899551 0.73554 0.309826 0 0 0
2 3 0.658226 0.78287 0.431338 0 0 0
3 1 0.912649 0.73822 -0.000385377 0 0 0
4 1 0.959558 0.538585 0.414671 0 0 0
5 1 1.00411 0.897793 0.425464 0 0 0
6 4 0.510694 0.566658 0.277505 0 0 0
7 1 0.603984 0.979261 0.315345 0 0 0
8 1 0.646249 0.795011 0.741615 0 0 0
9 2 0.355504 0.647987 0.26631 0 0 0
10 3 0.496437 0.309538 0.501423 0 0 0
11 3 0.283976 0.298716 0.745513 0 0 0
12 1 0.495556 0.138061 0.301286 0 0 0
13 1 0.639492 0.282416 0.686926 0 0 0
14 4 0.089211 0.248531 0.508084 0 0 0
15 1 0.262275 0.491874 0.898107 0 0 0
16 1 0.296673 0.133382 0.953822 0 0 0
17 2 -0.0451018 0.25602 0.683763 0 0 0
18 2 0.100685 0.0507592 0.412666 0 0 0
ITEM: TIMESTEP
225
ITEM: NUMBER OF ATOMS
18
ITEM: BOX BOUNDS ss ss ss
-2.96145 3.10532
-2.29248 2.5834
-1.64385 1.86664
ITEM: ATOMS id type xs ys zs ix iy iz
1 3 0.89797 0.737311 0.315249 0 0 0
2 3 0.65425 0.780419 0.426336 0 0 0
3 1 0.914526 0.732779 0.0055829 0 0 0
4 1 0.960141 0.544731 0.431381 0 0 0
5 1 0.998105 0.90512 0.426576 0 0 0
6 4 0.512172 0.559708 0.271954 0 0 0
7 1 0.598875 0.974262 0.303416 0 0 0
8 1 0.638256 0.796322 0.735836 0 0 0
9 2 0.355953 0.637093 0.251382 0 0 0
10 3 0.497633 0.304646 0.5014 0 0 0
11 3 0.287762 0.297837 0.750718 0 0 0
12 1 0.493572 0.131686 0.303992 0 0 0
13 1 0.642495 0.277747 0.682853 0 0 0
14 4 0.0891052 0.265711 0.516466 0 0 0
15 1 0.274048 0.486752 0.915946 0 0 0
16 1 0.296644 0.125176 0.948221 0 0 0
17 2 -0.0419927 0.255674 0.698864 0 0 0
18 2 0.100219 0.0782466 0.387106 0 0 0
ITEM: TIMESTEP
250
ITEM: NUMBER OF ATOMS
18
ITEM: BOX BOUNDS ss ss ss
-2.96145 3.10532
-2.29248 2.5834
-1.64385 1.86664
ITEM: ATOMS id type xs ys zs ix iy iz
1 3 0.89689 0.73895 0.319686 0 0 0
2 3 0.65176 0.77893 0.423593 0 0 0
3 1 0.916131 0.730651 0.0106337 0 0 0
4 1 0.960337 0.549129 0.442314 0 0 0
5 1 0.994048 0.910045 0.42917 0 0 0
6 4 0.513293 0.555353 0.267685 0 0 0
7 1 0.595657 0.971179 0.296846 0 0 0
8 1 0.632779 0.796418 0.73241 0 0 0
9 2 0.356577 0.630252 0.241435 0 0 0
10 3 0.498715 0.301287 0.499212 0 0 0
11 3 0.290476 0.296686 0.752501 0 0 0
12 1 0.49228 0.127815 0.30288 0 0 0
13 1 0.644713 0.273771 0.677717 0 0 0
14 4 0.0897546 0.27451 0.521258 0 0 0
15 1 0.281515 0.483113 0.924006 0 0 0
16 1 0.297337 0.120506 0.944208 0 0 0
17 2 -0.0401352 0.262031 0.705913 0 0 0
18 2 0.0976039 0.0905948 0.381809 0 0 0
ITEM: TIMESTEP
275
ITEM: NUMBER OF ATOMS
18
ITEM: BOX BOUNDS ss ss ss
-2.96145 3.10532
-2.29248 2.5834
-1.64385 1.86664
ITEM: ATOMS id type xs ys zs ix iy iz
1 3 0.894243 0.743726 0.332472 0 0 0
2 3 0.64576 0.77465 0.41722 0 0 0
3 1 0.921132 0.728338 0.0256384 0 0 0
4 1 0.960388 0.560449 0.469231 0 0 0
5 1 0.983527 0.922074 0.439628 0 0 0
6 4 0.516878 0.544587 0.25518 0 0 0
7 1 0.58798 0.963337 0.282524 0 0 0
8 1 0.618765 0.794514 0.723946 0 0 0
9 2 0.359525 0.613294 0.212858 0 0 0
10 3 0.500904 0.292592 0.490566 0 0 0
11 3 0.297314 0.294679 0.755008 0 0 0
12 1 0.487273 0.118487 0.296382 0 0 0
13 1 0.649863 0.261721 0.660467 0 0 0
14 4 0.0917599 0.293667 0.534416 0 0 0
15 1 0.299857 0.475773 0.937831 0 0 0
16 1 0.29981 0.112421 0.935816 0 0 0
17 2 -0.0351339 0.2806 0.725153 0 0 0
18 2 0.0898903 0.116312 0.378943 0 0 0
ITEM: TIMESTEP
277
ITEM: NUMBER OF ATOMS
18
ITEM: BOX BOUNDS ss ss ss
-2.96145 3.10532
-2.29248 2.5834
-1.64385 1.86664
ITEM: ATOMS id type xs ys zs ix iy iz
1 3 0.894205 0.743747 0.332529 0 0 0
2 3 0.645739 0.774635 0.417186 0 0 0
3 1 0.921154 0.728367 0.0257252 0 0 0
4 1 0.96033 0.560487 0.469355 0 0 0
5 1 0.983466 0.922114 0.439682 0 0 0
6 4 0.516919 0.544529 0.255125 0 0 0
7 1 0.587981 0.963291 0.282451 0 0 0
8 1 0.618719 0.794481 0.723876 0 0 0
9 2 0.359562 0.613264 0.212752 0 0 0
10 3 0.500919 0.292561 0.490509 0 0 0
11 3 0.297347 0.294649 0.754994 0 0 0
12 1 0.487238 0.118485 0.296333 0 0 0
13 1 0.649851 0.261656 0.660387 0 0 0
14 4 0.0917825 0.293774 0.534467 0 0 0
15 1 0.29991 0.475713 0.937793 0 0 0
16 1 0.299795 0.112403 0.935804 0 0 0
17 2 -0.0350775 0.280683 0.725261 0 0 0
18 2 0.0898939 0.116382 0.379049 0 0 0
ITEM: TIMESTEP
278
ITEM: NUMBER OF ATOMS
18
ITEM: BOX BOUNDS ss ss ss
-3.18426 3.01501
-1.75441 2.41441
-1.56354 1.65826
ITEM: ATOMS id type xs ys zs ix iy iz
1 3 0.911002 0.74081 0.337413 0 0 0
2 3 0.667904 0.777002 0.429654 0 0 0
3 1 0.937417 0.722843 0.00313298 0 0 0
4 1 0.975731 0.526496 0.486529 0 0 0
5 1 0.998372 0.949469 0.454184 0 0 0
6 4 0.54179 0.507712 0.253048 0 0 0
7 1 0.611352 0.997575 0.282808 0 0 0
8 1 0.641416 0.800142 0.763783 0 0 0
9 2 0.387837 0.588198 0.206846 0 0 0
10 3 0.526198 0.213159 0.509436 0 0 0
11 3 0.3269 0.21553 0.797775 0 0 0
12 1 0.512751 0.00949781 0.297938 0 0 0
13 1 0.671898 0.176933 0.694613 0 0 0
14 4 0.125781 0.214563 0.557441 0 0 0
15 1 0.329464 0.427311 0.996883 0 0 0
16 1 0.329328 0.0024012 0.994708 0 0 0
17 2 0.0016288 0.199254 0.765369 0 0 0
18 2 0.123911 0.0070835 0.388123 0 0 0
ITEM: TIMESTEP
279
ITEM: NUMBER OF ATOMS
18
ITEM: BOX BOUNDS ss ss ss
-3.18416 3.01492
-1.7544 2.4143
-1.56345 1.65821
ITEM: ATOMS id type xs ys zs ix iy iz
1 3 0.911025 0.740862 0.337443 0 0 0
2 3 0.667865 0.776947 0.429592 0 0 0
3 1 0.93744 0.722874 0.00315268 0 0 0
4 1 0.975714 0.526532 0.486604 0 0 0
5 1 0.998347 0.949514 0.454216 0 0 0
6 4 0.541837 0.507774 0.252969 0 0 0
7 1 0.611348 0.997589 0.282736 0 0 0
8 1 0.641391 0.800149 0.763764 0 0 0
9 2 0.38785 0.588175 0.206752 0 0 0
10 3 0.52616 0.213082 0.509466 0 0 0
11 3 0.326949 0.215536 0.797716 0 0 0
12 1 0.512735 0.00948785 0.297878 0 0 0
13 1 0.671912 0.17689 0.694561 0 0 0
14 4 0.125768 0.214626 0.557477 0 0 0
15 1 0.329492 0.427298 0.996901 0 0 0
16 1 0.329314 0.0023683 0.994722 0 0 0
17 2 0.00164853 0.199324 0.765438 0 0 0
18 2 0.123898 0.00713313 0.388169 0 0 0
