LAMMPS (10 Feb 2015)
units           real
atom_style      full
boundary        s s s
dielectric      72
special_bonds   lj/coul 0.0 0.0 1.0

pair_style      lj/cut/coul/debye 0.142 10
bond_style      harmonic
angle_style     harmonic
dihedral_style  charmm
improper_style  none
kspace_style    none

read_data       data._polymer_6
  orthogonal box = (-50 -50 -50) to (50 50 50)
  1 by 1 by 1 MPI processor grid
  reading atoms ...
  58 atoms
  scanning bonds ...
  4 = max bonds/atom
  scanning angles ...
  6 = max angles/atom
  scanning dihedrals ...
  16 = max dihedrals/atom
  reading bonds ...
  57 bonds
  reading angles ...
  105 angles
  reading dihedrals ...
  141 dihedrals
  4 = max # of 1-2 neighbors
  9 = max # of 1-3 neighbors
  12 = max # of special neighbors

pair_modify     mix geometric
neighbor        2.0 multi
neigh_modify    every 2 delay 4 check yes
thermo_style    multi

variable        input index in._polymer_6
variable        sname index _polymer_6

print                          .
.
print ==========================================
==========================================
print "500 steps CG Minimization"
500 steps CG Minimization
print ==========================================
==========================================
print                          .
.

dump            1 all atom 25 ${sname}.min.lammpstrj
dump            1 all atom 25 _polymer_6.min.lammpstrj
dump_modify     1 image yes scale yes
thermo          10
min_style       sd
minimize        1.0e-4 1.0e-4 500 5000
WARNING: Resetting reneighboring criteria during minimization (../min.cpp:168)
Neighbor list info ...
  1 neighbor list requests
  update every 1 steps, delay 0 steps, check yes
  master list distance cutoff = 12
Memory usage per processor = 14.6042 Mbytes
---------------- Step        0 ----- CPU =      0.0000 (sec) ----------------
TotEng   = 16378635353.8062 KinEng   =         0.0000 Temp     =         0.0000 
PotEng   = 16378635353.8062 E_bond   =       234.9781 E_angle  =       258.9554 
E_dihed  =        11.7215 E_impro  =         0.0000 E_vdwl   = 16378634848.4134 
E_coul   =        -0.2624 E_long   =         0.0000 Press    = 6703880769315.3652 
Volume   =       670.0947 
---------------- Step       10 ----- CPU =      0.0049 (sec) ----------------
TotEng   =    175682.0529 KinEng   =         0.0000 Temp     =         0.0000 
PotEng   =    175682.0529 E_bond   =       430.8734 E_angle  =       254.1439 
E_dihed  =        11.6866 E_impro  =         0.0000 E_vdwl   =    174985.5082 
E_coul   =        -0.1591 E_long   =         0.0000 Press    =  71659625.1878 
Volume   =       670.0947 
---------------- Step       20 ----- CPU =      0.0073 (sec) ----------------
TotEng   =      1575.6091 KinEng   =         0.0000 Temp     =         0.0000 
PotEng   =      1575.6091 E_bond   =       942.1536 E_angle  =       195.6659 
E_dihed  =        10.7605 E_impro  =         0.0000 E_vdwl   =       427.2144 
E_coul   =        -0.1853 E_long   =         0.0000 Press    =     61969.8553 
Volume   =       691.1470 
---------------- Step       30 ----- CPU =      0.0092 (sec) ----------------
TotEng   =       557.4277 KinEng   =         0.0000 Temp     =         0.0000 
PotEng   =       557.4277 E_bond   =       227.8504 E_angle  =       143.3930 
E_dihed  =        11.8309 E_impro  =         0.0000 E_vdwl   =       174.5306 
E_coul   =        -0.1772 E_long   =         0.0000 Press    =     31945.4572 
Volume   =       691.1470 
---------------- Step       40 ----- CPU =      0.0116 (sec) ----------------
TotEng   =       152.2523 KinEng   =         0.0000 Temp     =         0.0000 
PotEng   =       152.2523 E_bond   =         7.7658 E_angle  =        59.9320 
E_dihed  =        10.9998 E_impro  =         0.0000 E_vdwl   =        73.7209 
E_coul   =        -0.1663 E_long   =         0.0000 Press    =     31060.7833 
Volume   =       694.7477 
---------------- Step       50 ----- CPU =      0.0152 (sec) ----------------
TotEng   =        99.7852 KinEng   =         0.0000 Temp     =         0.0000 
PotEng   =        99.7852 E_bond   =         4.6785 E_angle  =        36.4661 
E_dihed  =        10.9876 E_impro  =         0.0000 E_vdwl   =        47.8253 
E_coul   =        -0.1723 E_long   =         0.0000 Press    =     19498.0408 
Volume   =       694.7477 
---------------- Step       60 ----- CPU =      0.0188 (sec) ----------------
TotEng   =        82.1992 KinEng   =         0.0000 Temp     =         0.0000 
PotEng   =        82.1992 E_bond   =         4.0346 E_angle  =        28.8780 
E_dihed  =        11.0187 E_impro  =         0.0000 E_vdwl   =        38.4339 
E_coul   =        -0.1659 E_long   =         0.0000 Press    =     12718.0810 
Volume   =       757.0196 
---------------- Step       70 ----- CPU =      0.0223 (sec) ----------------
TotEng   =        73.2677 KinEng   =         0.0000 Temp     =         0.0000 
PotEng   =        73.2677 E_bond   =         3.7895 E_angle  =        25.4243 
E_dihed  =        11.0061 E_impro  =         0.0000 E_vdwl   =        33.2002 
E_coul   =        -0.1525 E_long   =         0.0000 Press    =      9349.7640 
Volume   =       757.0196 
---------------- Step       80 ----- CPU =      0.0259 (sec) ----------------
TotEng   =        67.9806 KinEng   =         0.0000 Temp     =         0.0000 
PotEng   =        67.9806 E_bond   =         3.7359 E_angle  =        23.7023 
E_dihed  =        10.9588 E_impro  =         0.0000 E_vdwl   =        29.7363 
E_coul   =        -0.1526 E_long   =         0.0000 Press    =      6894.5106 
Volume   =       757.0196 
---------------- Step       90 ----- CPU =      0.0294 (sec) ----------------
TotEng   =        64.9422 KinEng   =         0.0000 Temp     =         0.0000 
PotEng   =        64.9422 E_bond   =         3.7586 E_angle  =        22.9254 
E_dihed  =        10.8959 E_impro  =         0.0000 E_vdwl   =        27.5133 
E_coul   =        -0.1511 E_long   =         0.0000 Press    =      5225.9886 
Volume   =       757.0196 
---------------- Step      100 ----- CPU =      0.0330 (sec) ----------------
TotEng   =        63.1441 KinEng   =         0.0000 Temp     =         0.0000 
PotEng   =        63.1441 E_bond   =         3.8228 E_angle  =        22.5819 
E_dihed  =        10.8304 E_impro  =         0.0000 E_vdwl   =        26.0537 
E_coul   =        -0.1447 E_long   =         0.0000 Press    =      4097.6271 
Volume   =       757.0196 
---------------- Step      110 ----- CPU =      0.0365 (sec) ----------------
TotEng   =        61.9156 KinEng   =         0.0000 Temp     =         0.0000 
PotEng   =        61.9156 E_bond   =         3.9065 E_angle  =        22.4181 
E_dihed  =        10.7615 E_impro  =         0.0000 E_vdwl   =        24.9723 
E_coul   =        -0.1428 E_long   =         0.0000 Press    =      3251.1019 
Volume   =       757.0196 
---------------- Step      120 ----- CPU =      0.0400 (sec) ----------------
TotEng   =        60.9958 KinEng   =         0.0000 Temp     =         0.0000 
PotEng   =        60.9958 E_bond   =         3.9939 E_angle  =        22.3439 
E_dihed  =        10.6865 E_impro  =         0.0000 E_vdwl   =        24.1048 
E_coul   =        -0.1334 E_long   =         0.0000 Press    =      2571.1865 
Volume   =       757.0196 
---------------- Step      130 ----- CPU =      0.0436 (sec) ----------------
TotEng   =        60.2780 KinEng   =         0.0000 Temp     =         0.0000 
PotEng   =        60.2780 E_bond   =         4.0733 E_angle  =        22.3217 
E_dihed  =        10.6069 E_impro  =         0.0000 E_vdwl   =        23.4104 
E_coul   =        -0.1343 E_long   =         0.0000 Press    =      2029.9593 
Volume   =       757.0196 
---------------- Step      140 ----- CPU =      0.0471 (sec) ----------------
TotEng   =        59.7345 KinEng   =         0.0000 Temp     =         0.0000 
PotEng   =        59.7345 E_bond   =         4.1389 E_angle  =        22.3269 
E_dihed  =        10.5261 E_impro  =         0.0000 E_vdwl   =        22.8663 
E_coul   =        -0.1237 E_long   =         0.0000 Press    =      1612.0257 
Volume   =       757.0196 
---------------- Step      150 ----- CPU =      0.0507 (sec) ----------------
TotEng   =        59.2871 KinEng   =         0.0000 Temp     =         0.0000 
PotEng   =        59.2871 E_bond   =         4.1921 E_angle  =        22.3443 
E_dihed  =        10.4444 E_impro  =         0.0000 E_vdwl   =        22.4305 
E_coul   =        -0.1242 E_long   =         0.0000 Press    =      1282.8196 
Volume   =       757.0196 
---------------- Step      160 ----- CPU =      0.0542 (sec) ----------------
TotEng   =        58.9003 KinEng   =         0.0000 Temp     =         0.0000 
PotEng   =        58.9003 E_bond   =         4.2360 E_angle  =        22.3668 
E_dihed  =        10.3587 E_impro  =         0.0000 E_vdwl   =        22.0620 
E_coul   =        -0.1232 E_long   =         0.0000 Press    =      1010.9527 
Volume   =       757.0196 
---------------- Step      170 ----- CPU =      0.0577 (sec) ----------------
TotEng   =        58.5387 KinEng   =         0.0000 Temp     =         0.0000 
PotEng   =        58.5387 E_bond   =         4.2737 E_angle  =        22.3911 
E_dihed  =        10.2642 E_impro  =         0.0000 E_vdwl   =        21.7321 
E_coul   =        -0.1223 E_long   =         0.0000 Press    =       774.8126 
Volume   =       757.0196 
---------------- Step      180 ----- CPU =      0.0613 (sec) ----------------
TotEng   =        58.1737 KinEng   =         0.0000 Temp     =         0.0000 
PotEng   =        58.1737 E_bond   =         4.3075 E_angle  =        22.4151 
E_dihed  =        10.1531 E_impro  =         0.0000 E_vdwl   =        21.4192 
E_coul   =        -0.1212 E_long   =         0.0000 Press    =       559.8678 
Volume   =       757.0196 
---------------- Step      190 ----- CPU =      0.0648 (sec) ----------------
TotEng   =        57.7678 KinEng   =         0.0000 Temp     =         0.0000 
PotEng   =        57.7678 E_bond   =         4.3397 E_angle  =        22.4366 
E_dihed  =        10.0105 E_impro  =         0.0000 E_vdwl   =        21.1009 
E_coul   =        -0.1199 E_long   =         0.0000 Press    =       353.6476 
Volume   =       757.0196 
---------------- Step      200 ----- CPU =      0.0684 (sec) ----------------
TotEng   =        57.2401 KinEng   =         0.0000 Temp     =         0.0000 
PotEng   =        57.2401 E_bond   =         4.3753 E_angle  =        22.4497 
E_dihed  =         9.7960 E_impro  =         0.0000 E_vdwl   =        20.7373 
E_coul   =        -0.1182 E_long   =         0.0000 Press    =       140.0092 
Volume   =       757.0196 
---------------- Step      210 ----- CPU =      0.0719 (sec) ----------------
TotEng   =        56.2472 KinEng   =         0.0000 Temp     =         0.0000 
PotEng   =        56.2472 E_bond   =         4.4432 E_angle  =        22.4166 
E_dihed  =         9.3150 E_impro  =         0.0000 E_vdwl   =        20.1867 
E_coul   =        -0.1144 E_long   =         0.0000 Press    =      -118.8873 
Volume   =       757.0196 
---------------- Step      220 ----- CPU =      0.0753 (sec) ----------------
TotEng   =        53.8238 KinEng   =         0.0000 Temp     =         0.0000 
PotEng   =        53.8238 E_bond   =         4.1899 E_angle  =        21.9996 
E_dihed  =         8.2899 E_impro  =         0.0000 E_vdwl   =        19.4503 
E_coul   =        -0.1058 E_long   =         0.0000 Press    =      -383.5860 
Volume   =       799.9782 
---------------- Step      230 ----- CPU =      0.0789 (sec) ----------------
TotEng   =        53.7555 KinEng   =         0.0000 Temp     =         0.0000 
PotEng   =        53.7555 E_bond   =         4.1490 E_angle  =        22.0033 
E_dihed  =         8.2633 E_impro  =         0.0000 E_vdwl   =        19.4456 
E_coul   =        -0.1056 E_long   =         0.0000 Press    =      -192.3851 
Volume   =       799.9782 
---------------- Step      240 ----- CPU =      0.0824 (sec) ----------------
TotEng   =        53.6861 KinEng   =         0.0000 Temp     =         0.0000 
PotEng   =        53.6861 E_bond   =         4.1418 E_angle  =        21.9851 
E_dihed  =         8.2328 E_impro  =         0.0000 E_vdwl   =        19.4318 
E_coul   =        -0.1054 E_long   =         0.0000 Press    =      -183.6054 
Volume   =       799.9782 
---------------- Step      250 ----- CPU =      0.0860 (sec) ----------------
TotEng   =        53.6066 KinEng   =         0.0000 Temp     =         0.0000 
PotEng   =        53.6066 E_bond   =         4.1345 E_angle  =        21.9642 
E_dihed  =         8.1978 E_impro  =         0.0000 E_vdwl   =        19.4154 
E_coul   =        -0.1052 E_long   =         0.0000 Press    =      -175.7228 
Volume   =       799.9782 
---------------- Step      260 ----- CPU =      0.0895 (sec) ----------------
TotEng   =        53.5053 KinEng   =         0.0000 Temp     =         0.0000 
PotEng   =        53.5053 E_bond   =         4.1260 E_angle  =        21.9373 
E_dihed  =         8.1528 E_impro  =         0.0000 E_vdwl   =        19.3942 
E_coul   =        -0.1050 E_long   =         0.0000 Press    =      -165.5867 
Volume   =       799.9782 
---------------- Step      270 ----- CPU =      0.0930 (sec) ----------------
TotEng   =        53.3417 KinEng   =         0.0000 Temp     =         0.0000 
PotEng   =        53.3417 E_bond   =         4.1161 E_angle  =        21.8928 
E_dihed  =         8.0780 E_impro  =         0.0000 E_vdwl   =        19.3592 
E_coul   =        -0.1045 E_long   =         0.0000 Press    =      -147.8120 
Volume   =       799.9782 
---------------- Step      280 ----- CPU =      0.0966 (sec) ----------------
TotEng   =        52.5522 KinEng   =         0.0000 Temp     =         0.0000 
PotEng   =        52.5522 E_bond   =         3.8618 E_angle  =        21.7460 
E_dihed  =         7.7476 E_impro  =         0.0000 E_vdwl   =        19.2995 
E_coul   =        -0.1028 E_long   =         0.0000 Press    =      1224.0289 
Volume   =       799.9782 
---------------- Step      284 ----- CPU =      0.0982 (sec) ----------------
TotEng   =        52.4758 KinEng   =         0.0000 Temp     =         0.0000 
PotEng   =        52.4758 E_bond   =         3.9292 E_angle  =        21.6448 
E_dihed  =         7.7429 E_impro  =         0.0000 E_vdwl   =        19.2616 
E_coul   =        -0.1029 E_long   =         0.0000 Press    =       172.5503 
Volume   =       799.9782 
Loop time of 0.098253 on 1 procs for 284 steps with 58 atoms

Minimization stats:
  Stopping criterion = energy tolerance
  Energy initial, next-to-last, final = 
         16378635353.8      52.4791648447      52.4757580009
  Force two-norm initial, final = 7.34193e+11 2.41011
  Force max component initial, final = 4.5017e+11 0.557419
  Final line search alpha, max atom move = 0.125766 0.0701045
  Iterations, force evaluations = 284 551

Pair  time (%) = 0.0728042 (74.0987)
Bond  time (%) = 0.0222001 (22.5948)
Neigh time (%) = 0.00028801 (0.293131)
Comm  time (%) = 0.000112057 (0.114049)
Outpt time (%) = 0.00138426 (1.40887)
Other time (%) = 0.00146437 (1.4904)

Nlocal:    58 ave 58 max 58 min
Histogram: 1 0 0 0 0 0 0 0 0 0
Nghost:    0 ave 0 max 0 min
Histogram: 1 0 0 0 0 0 0 0 0 0
Neighs:    1476 ave 1476 max 1476 min
Histogram: 1 0 0 0 0 0 0 0 0 0

Total # of neighbors = 1476
Ave neighs/atom = 25.4483
Ave special neighs/atom = 5.58621
Neighbor list builds = 4
Dangerous builds = 0
min_style       cg
minimize        1.0e-4 1.0e-4 500 5000
WARNING: Resetting reneighboring criteria during minimization (../min.cpp:168)
Memory usage per processor = 14.6042 Mbytes
---------------- Step      284 ----- CPU =      0.0000 (sec) ----------------
TotEng   =        52.4758 KinEng   =         0.0000 Temp     =         0.0000 
PotEng   =        52.4758 E_bond   =         3.9292 E_angle  =        21.6448 
E_dihed  =         7.7429 E_impro  =         0.0000 E_vdwl   =        19.2616 
E_coul   =        -0.1029 E_long   =         0.0000 Press    =       172.6631 
Volume   =       799.4555 
---------------- Step      285 ----- CPU =      0.0006 (sec) ----------------
TotEng   =        52.4732 KinEng   =         0.0000 Temp     =         0.0000 
PotEng   =        52.4732 E_bond   =         3.9428 E_angle  =        21.6371 
E_dihed  =         7.7412 E_impro  =         0.0000 E_vdwl   =        19.2551 
E_coul   =        -0.1029 E_long   =         0.0000 Press    =       102.6445 
Volume   =       799.4555 
Loop time of 0.000634909 on 1 procs for 1 steps with 58 atoms

Minimization stats:
  Stopping criterion = energy tolerance
  Energy initial, next-to-last, final = 
         52.4757580009      52.4757580009      52.4732398317
  Force two-norm initial, final = 2.41011 2.50353
  Force max component initial, final = 0.557419 0.629685
  Final line search alpha, max atom move = 0.179398 0.112964
  Iterations, force evaluations = 1 2

Pair  time (%) = 0.000393152 (61.9226)
Bond  time (%) = 0.000124693 (19.6395)
Neigh time (%) = 0 (0)
Comm  time (%) = 0 (0)
Outpt time (%) = 0 (0)
Other time (%) = 0.000117064 (18.4379)

Nlocal:    58 ave 58 max 58 min
Histogram: 1 0 0 0 0 0 0 0 0 0
Nghost:    0 ave 0 max 0 min
Histogram: 1 0 0 0 0 0 0 0 0 0
Neighs:    1477 ave 1477 max 1477 min
Histogram: 1 0 0 0 0 0 0 0 0 0

Total # of neighbors = 1477
Ave neighs/atom = 25.4655
Ave special neighs/atom = 5.58621
Neighbor list builds = 0
Dangerous builds = 0
#now minimize the entire system
minimize        1.0e-4 1.0e-4 500 5000
WARNING: Resetting reneighboring criteria during minimization (../min.cpp:168)
Memory usage per processor = 14.6042 Mbytes
---------------- Step      285 ----- CPU =      0.0000 (sec) ----------------
TotEng   =        52.4732 KinEng   =         0.0000 Temp     =         0.0000 
PotEng   =        52.4732 E_bond   =         3.9428 E_angle  =        21.6371 
E_dihed  =         7.7412 E_impro  =         0.0000 E_vdwl   =        19.2551 
E_coul   =        -0.1029 E_long   =         0.0000 Press    =       102.6358 
Volume   =       799.5229 
---------------- Step      286 ----- CPU =      0.0006 (sec) ----------------
TotEng   =        52.4711 KinEng   =         0.0000 Temp     =         0.0000 
PotEng   =        52.4711 E_bond   =         3.9487 E_angle  =        21.6304 
E_dihed  =         7.7413 E_impro  =         0.0000 E_vdwl   =        19.2537 
E_coul   =        -0.1030 E_long   =         0.0000 Press    =        73.1694 
Volume   =       799.5229 
Loop time of 0.000631094 on 1 procs for 1 steps with 58 atoms

Minimization stats:
  Stopping criterion = energy tolerance
  Energy initial, next-to-last, final = 
         52.4732398317      52.4732398317      52.4711238038
  Force two-norm initial, final = 2.50353 2.05326
  Force max component initial, final = 0.629685 0.465717
  Final line search alpha, max atom move = 0.15881 0.0739604
  Iterations, force evaluations = 1 2

Pair  time (%) = 0.000393867 (62.4103)
Bond  time (%) = 0.000123978 (19.6449)
Neigh time (%) = 0 (0)
Comm  time (%) = 0 (0)
Outpt time (%) = 0 (0)
Other time (%) = 0.000113249 (17.9448)

Nlocal:    58 ave 58 max 58 min
Histogram: 1 0 0 0 0 0 0 0 0 0
Nghost:    0 ave 0 max 0 min
Histogram: 1 0 0 0 0 0 0 0 0 0
Neighs:    1477 ave 1477 max 1477 min
Histogram: 1 0 0 0 0 0 0 0 0 0

Total # of neighbors = 1477
Ave neighs/atom = 25.4655
Ave special neighs/atom = 5.58621
Neighbor list builds = 0
Dangerous builds = 0
undump          1

Please see the log.cite file for references relevant to this simulation

