ITEM: TIMESTEP
0
ITEM: NUMBER OF ATOMS
82
ITEM: BOX BOUNDS ss ss ss
-6.55599 6.63021
-4.37839 5.11849
-3.88344 5.44761
ITEM: ATOMS id type xs ys zs ix iy iz
24 3 0.499192 0.308811 0.498119 0 0 0
27 4 0.423505 0.217579 0.426649 0 0 0
29 1 0.460926 0.394567 0.553903 0 0 0
30 2 0.36916 0.191616 0.500069 0 0 0
31 3 0.37267 0.278764 0.299377 0 0 0
32 3 0.294143 0.396366 0.33085 0 0 0
33 1 0.430011 0.318883 0.225192 0 0 0
34 1 0.333855 0.192667 0.244587 0 0 0
35 4 0.200223 0.337562 0.399343 0 0 0
36 1 0.27664 0.446269 0.228263 0 0 0
37 1 0.32805 0.479045 0.396665 0 0 0
42 4 0.416695 0.359572 0.862547 0 0 0
45 2 0.414134 0.32716 0.7584 0 0 0
46 2 0.413708 0.270964 0.924648 0 0 0
47 3 0.102048 0.37345 0.326376 0 0 0
48 3 0.077911 0.271719 0.201374 0 0 0
49 1 0.102767 0.482143 0.287647 0 0 0
50 1 0.0384872 0.36601 0.401151 0 0 0
51 4 0.146775 0.288921 0.0792505 0 0 0
52 1 0.000758369 0.29088 0.163494 0 0 0
53 1 0.0825515 0.163058 0.23904 0 0 0
54 2 0.136355 0.388632 0.0406664 0 0 0
55 2 0.122834 0.221229 0.00107169 0 0 0
56 3 0.198031 0.343221 0.559882 0 0 0
57 3 0.146091 0.212697 0.626659 0 0 0
58 1 0.274633 0.347612 0.604027 0 0 0
59 1 0.159095 0.438718 0.595447 0 0 0
60 4 0.198559 0.082505 0.585944 0 0 0
61 1 0.0670853 0.205529 0.592838 0 0 0
62 1 0.147643 0.221556 0.743316 0 0 0
63 2 0.191071 0.0719289 0.477428 0 0 0
64 2 0.159458 0.00105298 0.631521 0 0 0
69 4 0.449578 0.791808 0.241141 0 0 0
70 1 0.493306 0.883172 0.0475766 0 0 0
71 1 0.490715 0.998947 0.195965 0 0 0
72 2 0.459219 0.696455 0.192093 0 0 0
73 2 0.375585 0.819825 0.224934 0 0 0
82 2 0.454702 0.690465 0.123586 0 0 0
1 3 0.948266 0.698217 0.431817 0 0 0
2 3 0.872827 0.608158 0.519467 0 0 0
3 1 0.907887 0.767637 0.358155 0 0 0
4 1 0.999242 0.630281 0.370919 0 0 0
5 1 0.993404 0.763594 0.503888 0 0 0
6 4 0.816862 0.498307 0.43525 0 0 0
7 1 0.81921 0.678418 0.572777 0 0 0
8 1 0.916972 0.556077 0.603293 0 0 0
9 3 0.770025 0.381909 0.521086 0 0 0
10 3 0.691135 0.429077 0.635038 0 0 0
11 1 0.735986 0.305668 0.448191 0 0 0
12 1 0.830832 0.325679 0.576439 0 0 0
13 4 0.633603 0.308416 0.699942 0 0 0
14 1 0.638282 0.504719 0.588981 0 0 0
15 1 0.732878 0.48521 0.718547 0 0 0
16 3 0.763974 0.540662 0.299471 0 0 0
17 3 0.67548 0.647436 0.314735 0 0 0
18 1 0.735594 0.447322 0.24389 0 0 0
19 1 0.821229 0.585113 0.228085 0 0 0
20 4 0.661121 0.723403 0.177158 0 0 0
21 1 0.692752 0.720675 0.401208 0 0 0
22 1 0.605406 0.592536 0.341953 0 0 0
23 3 0.564028 0.22348 0.606109 0 0 0
25 1 0.513146 0.159408 0.671725 0 0 0
26 1 0.6106 0.149116 0.54583 0 0 0
28 1 0.549451 0.353641 0.417205 0 0 0
38 3 0.605149 0.322598 0.85461 0 0 0
39 3 0.516174 0.424599 0.886507 0 0 0
40 1 0.587319 0.218758 0.898467 0 0 0
41 1 0.671573 0.358906 0.914224 0 0 0
43 1 0.522395 0.519217 0.820809 0 0 0
44 1 0.519249 0.456242 0.998928 0 0 0
65 3 0.626748 0.872044 0.184004 0 0 0
66 3 0.51157 0.892975 0.161265 0 0 0
67 1 0.649845 0.922149 0.284252 0 0 0
68 1 0.666171 0.927772 0.0981379 0 0 0
74 3 0.706247 0.64237 0.11783 0 0 0
75 3 0.607754 0.726473 0.109078 0 0 0
76 1 0.711131 0.565347 0.0303514 0 0 0
77 1 0.710164 0.584695 0.219267 0 0 0
78 4 0.519978 0.633172 0.127862 0 0 0
79 1 0.606686 0.787025 0.00784585 0 0 0
80 1 0.605862 0.804151 0.196133 0 0 0
81 2 0.516377 0.564352 0.0440786 0 0 0
ITEM: TIMESTEP
25
ITEM: NUMBER OF ATOMS
82
ITEM: BOX BOUNDS ss ss ss
-6.55605 6.63158
-4.3784 5.29681
-3.91833 5.44753
ITEM: ATOMS id type xs ys zs ix iy iz
24 3 0.499191 0.303268 0.499936 0 0 0
27 4 0.423509 0.213625 0.428719 0 0 0
29 1 0.460823 0.38732 0.555519 0 0 0
30 2 0.369156 0.188034 0.501831 0 0 0
31 3 0.372612 0.273593 0.301926 0 0 0
32 3 0.294124 0.389056 0.333279 0 0 0
33 1 0.429943 0.312846 0.228009 0 0 0
34 1 0.333781 0.189083 0.247369 0 0 0
35 4 0.200216 0.331351 0.40156 0 0 0
36 1 0.276604 0.43803 0.231073 0 0 0
37 1 0.32804 0.470214 0.398828 0 0 0
42 4 0.416514 0.353065 0.863068 0 0 0
45 2 0.414065 0.321213 0.759301 0 0 0
46 2 0.413557 0.266103 0.924936 0 0 0
47 3 0.102036 0.366562 0.328903 0 0 0
48 3 0.0778832 0.26669 0.204388 0 0 0
49 1 0.10275 0.473246 0.290309 0 0 0
50 1 0.0384938 0.359266 0.403425 0 0 0
51 4 0.146724 0.283565 0.082701 0 0 0
52 1 0.00073307 0.285493 0.16667 0 0 0
53 1 0.0825274 0.160037 0.241927 0 0 0
54 2 0.136295 0.381432 0.0442498 0 0 0
55 2 0.122778 0.217108 0.00482973 0 0 0
56 3 0.198044 0.336894 0.561508 0 0 0
57 3 0.146105 0.208787 0.628066 0 0 0
58 1 0.274643 0.341186 0.605471 0 0 0
59 1 0.159125 0.430633 0.596961 0 0 0
60 4 0.19855 0.0809794 0.587507 0 0 0
61 1 0.067103 0.201751 0.59439 0 0 0
62 1 0.147668 0.217484 0.744291 0 0 0
63 2 0.191064 0.0705946 0.479395 0 0 0
64 2 0.159445 0.00103365 0.632915 0 0 0
69 4 0.436737 0.822904 0.265291 0 0 0
70 1 0.491398 0.89693 0.0724292 0 0 0
71 1 0.493543 1.01315 0.204535 0 0 0
72 2 0.448697 0.718463 0.258031 0 0 0
73 2 0.366652 0.83178 0.217686 0 0 0
82 2 0.441094 0.643928 0.0768759 0 0 0
1 3 0.950567 0.685853 0.438533 0 0 0
2 3 0.878898 0.59647 0.532722 0 0 0
3 1 0.908434 0.752654 0.364826 0 0 0
4 1 1.00038 0.619274 0.375525 0 0 0
5 1 0.996144 0.75183 0.506764 0 0 0
6 4 0.82807 0.482236 0.455714 0 0 0
7 1 0.823116 0.66417 0.58292 0 0 0
8 1 0.923321 0.54879 0.61659 0 0 0
9 3 0.77306 0.370573 0.533037 0 0 0
10 3 0.691294 0.420533 0.639928 0 0 0
11 1 0.738178 0.297803 0.458012 0 0 0
12 1 0.830768 0.311594 0.58901 0 0 0
13 4 0.632999 0.302499 0.702258 0 0 0
14 1 0.63921 0.494049 0.590687 0 0 0
15 1 0.732088 0.476878 0.722715 0 0 0
16 3 0.777071 0.528613 0.327579 0 0 0
17 3 0.697423 0.651759 0.341135 0 0 0
18 1 0.745343 0.435819 0.277697 0 0 0
19 1 0.836158 0.559278 0.252996 0 0 0
20 4 0.706596 0.742 0.208961 0 0 0
21 1 0.702968 0.714746 0.436058 0 0 0
22 1 0.62404 0.59831 0.353955 0 0 0
23 3 0.563783 0.219358 0.60784 0 0 0
25 1 0.512834 0.156336 0.672827 0 0 0
26 1 0.610428 0.146432 0.547731 0 0 0
28 1 0.549514 0.347493 0.419411 0 0 0
38 3 0.604696 0.316379 0.856079 0 0 0
39 3 0.515965 0.416852 0.887124 0 0 0
40 1 0.586937 0.214444 0.899408 0 0 0
41 1 0.671277 0.352026 0.915116 0 0 0
43 1 0.522341 0.509627 0.821488 0 0 0
44 1 0.519046 0.448055 0.999058 0 0 0
65 3 0.639013 0.884515 0.20662 0 0 0
66 3 0.516512 0.905379 0.184617 0 0 0
67 1 0.659948 0.939432 0.303077 0 0 0
68 1 0.675017 0.940623 0.117844 0 0 0
74 3 0.68772 0.640172 0.0855563 0 0 0
75 3 0.582013 0.654636 0.0493193 0 0 0
76 1 0.743832 0.592469 0.01128 0 0 0
77 1 0.676396 0.536727 0.118252 0 0 0
78 4 0.497688 0.570474 0.08335 0 0 0
79 1 0.574107 0.741272 -0.0221503 0 0 0
80 1 0.55546 0.673654 0.156484 0 0 0
81 2 0.50181 0.510428 -0.00116167 0 0 0
ITEM: TIMESTEP
50
ITEM: NUMBER OF ATOMS
82
ITEM: BOX BOUNDS ss ss ss
-6.55682 6.6729
-4.37835 5.4647
-4.32141 5.45222
ITEM: ATOMS id type xs ys zs ix iy iz
24 3 0.49794 0.298553 0.52055 0 0 0
27 4 0.422551 0.210301 0.452114 0 0 0
29 1 0.459497 0.381071 0.573694 0 0 0
30 2 0.368386 0.18484 0.522094 0 0 0
31 3 0.37159 0.268915 0.330613 0 0 0
32 3 0.293287 0.38238 0.360548 0 0 0
33 1 0.428673 0.307347 0.259652 0 0 0
34 1 0.332842 0.185741 0.278512 0 0 0
35 4 0.199672 0.325687 0.426021 0 0 0
36 1 0.275796 0.430449 0.262577 0 0 0
37 1 0.327076 0.462207 0.423303 0 0 0
42 4 0.414836 0.347248 0.868511 0 0 0
45 2 0.412709 0.315982 0.769036 0 0 0
46 2 0.41182 0.261697 0.927675 0 0 0
47 3 0.101778 0.360296 0.356446 0 0 0
48 3 0.0776579 0.262103 0.237162 0 0 0
49 1 0.102478 0.465154 0.31944 0 0 0
50 1 0.0384556 0.353143 0.427892 0 0 0
51 4 0.146249 0.278667 0.120517 0 0 0
52 1 0.000742322 0.28058 0.201054 0 0 0
53 1 0.0822949 0.157276 0.273156 0 0 0
54 2 0.135838 0.374856 0.0836541 0 0 0
55 2 0.122362 0.213325 0.0459216 0 0 0
56 3 0.197533 0.331133 0.579297 0 0 0
57 3 0.145747 0.205234 0.643114 0 0 0
58 1 0.273899 0.335327 0.621387 0 0 0
59 1 0.158762 0.423288 0.613287 0 0 0
60 4 0.197996 0.0795827 0.604256 0 0 0
61 1 0.0669887 0.198335 0.610873 0 0 0
62 1 0.147324 0.2138 0.754489 0 0 0
63 2 0.190529 0.0693696 0.500656 0 0 0
64 2 0.158999 0.00101935 0.647778 0 0 0
69 4 0.443281 0.818746 0.306 0 0 0
70 1 0.498159 0.888202 0.119548 0 0 0
71 1 0.505778 1.00213 0.251064 0 0 0
72 2 0.454861 0.716468 0.29822 0 0 0
73 2 0.375008 0.833444 0.257049 0 0 0
82 2 0.424528 0.596214 0.0962729 0 0 0
1 3 0.950841 0.674363 0.468419 0 0 0
2 3 0.881002 0.58584 0.559984 0 0 0
3 1 0.906801 0.73877 0.399217 0 0 0
4 1 0.999981 0.60956 0.406603 0 0 0
5 1 0.9973 0.740746 0.531337 0 0 0
6 4 0.827027 0.476466 0.484106 0 0 0
7 1 0.826478 0.651852 0.610997 0 0 0
8 1 0.927165 0.538476 0.639143 0 0 0
9 3 0.774247 0.364833 0.559144 0 0 0
10 3 0.689965 0.413262 0.657488 0 0 0
11 1 0.741339 0.292367 0.486868 0 0 0
12 1 0.8303 0.306841 0.616537 0 0 0
13 4 0.630758 0.29738 0.71576 0 0 0
14 1 0.63924 0.484309 0.606465 0 0 0
15 1 0.728024 0.470226 0.738219 0 0 0
16 3 0.775446 0.522604 0.357803 0 0 0
17 3 0.695328 0.63946 0.368163 0 0 0
18 1 0.741932 0.431484 0.313327 0 0 0
19 1 0.83489 0.550346 0.285374 0 0 0
20 4 0.6926 0.723967 0.239387 0 0 0
21 1 0.708958 0.706403 0.455019 0 0 0
22 1 0.620572 0.595075 0.383159 0 0 0
23 3 0.562116 0.216055 0.624229 0 0 0
25 1 0.511054 0.153841 0.685889 0 0 0
26 1 0.608823 0.144587 0.56669 0 0 0
28 1 0.548274 0.342132 0.44361 0 0 0
38 3 0.602112 0.310342 0.863076 0 0 0
39 3 0.513952 0.409746 0.892058 0 0 0
40 1 0.583968 0.210136 0.904263 0 0 0
41 1 0.668354 0.34487 0.92027 0 0 0
43 1 0.520729 0.500638 0.828771 0 0 0
44 1 0.516796 0.440866 0.999197 0 0 0
65 3 0.639365 0.863399 0.244155 0 0 0
66 3 0.51973 0.896402 0.226991 0 0 0
67 1 0.661402 0.91642 0.337626 0 0 0
68 1 0.673551 0.922088 0.161031 0 0 0
74 3 0.676363 0.626221 0.118785 0 0 0
75 3 0.567964 0.636632 0.070512 0 0 0
76 1 0.734355 0.638127 0.0400632 0 0 0
77 1 0.678372 0.518848 0.141502 0 0 0
78 4 0.48906 0.537039 0.0899605 0 0 0
79 1 0.55683 0.715837 -0.00511632 0 0 0
80 1 0.538029 0.6666 0.164669 0 0 0
81 2 0.484795 0.47921 0.00589507 0 0 0
ITEM: TIMESTEP
75
ITEM: NUMBER OF ATOMS
82
ITEM: BOX BOUNDS ss ss ss
-6.55682 6.6729
-4.37835 5.4647
-4.32141 5.45222
ITEM: ATOMS id type xs ys zs ix iy iz
24 3 0.498277 0.298979 0.520835 0 0 0
27 4 0.422951 0.210656 0.452318 0 0 0
29 1 0.459749 0.381514 0.573877 0 0 0
30 2 0.368837 0.184917 0.522275 0 0 0
31 3 0.371796 0.26897 0.330799 0 0 0
32 3 0.293371 0.382344 0.360545 0 0 0
33 1 0.428806 0.307344 0.259719 0 0 0
34 1 0.333083 0.185644 0.278885 0 0 0
35 4 0.19974 0.325648 0.426003 0 0 0
36 1 0.27587 0.430281 0.262506 0 0 0
37 1 0.327085 0.462277 0.423232 0 0 0
42 4 0.414401 0.34746 0.868718 0 0 0
45 2 0.412504 0.316228 0.769224 0 0 0
46 2 0.411185 0.261863 0.927814 0 0 0
47 3 0.101824 0.360279 0.356469 0 0 0
48 3 0.07764 0.262071 0.237222 0 0 0
49 1 0.102522 0.465129 0.31944 0 0 0
50 1 0.0385145 0.35316 0.427944 0 0 0
51 4 0.146194 0.278607 0.120534 0 0 0
52 1 0.000712233 0.280554 0.20116 0 0 0
53 1 0.0822761 0.157249 0.273232 0 0 0
54 2 0.135763 0.374788 0.0836572 0 0 0
55 2 0.122281 0.213249 0.0459692 0 0 0
56 3 0.197612 0.331112 0.579276 0 0 0
57 3 0.145803 0.205245 0.643124 0 0 0
58 1 0.273985 0.335281 0.621344 0 0 0
59 1 0.158863 0.423287 0.613265 0 0 0
60 4 0.198021 0.0795706 0.604269 0 0 0
61 1 0.0670378 0.198369 0.610905 0 0 0
62 1 0.147396 0.213828 0.754497 0 0 0
63 2 0.190544 0.069353 0.500672 0 0 0
64 2 0.159007 0.00102847 0.647802 0 0 0
69 4 0.448291 0.826142 0.313796 0 0 0
70 1 0.501455 0.89343 0.123892 0 0 0
71 1 0.513485 1.0076 0.256911 0 0 0
72 2 0.460376 0.723791 0.306997 0 0 0
73 2 0.380025 0.841285 0.266195 0 0 0
82 2 0.420486 0.567918 0.0864353 0 0 0
1 3 0.952592 0.674427 0.472387 0 0 0
2 3 0.882608 0.58536 0.563258 0 0 0
3 1 0.90827 0.739082 0.404207 0 0 0
4 1 1.00172 0.609948 0.410449 0 0 0
5 1 0.999252 0.740294 0.535941 0 0 0
6 4 0.826428 0.478767 0.485084 0 0 0
7 1 0.829286 0.651513 0.616346 0 0 0
8 1 0.929496 0.536358 0.640498 0 0 0
9 3 0.775743 0.365913 0.562826 0 0 0
10 3 0.690372 0.413658 0.659047 0 0 0
11 1 0.745111 0.291811 0.490555 0 0 0
12 1 0.832511 0.311116 0.621936 0 0 0
13 4 0.630712 0.297346 0.717 0 0 0
14 1 0.639767 0.483778 0.60693 0 0 0
15 1 0.726738 0.471438 0.740753 0 0 0
16 3 0.774753 0.522368 0.358469 0 0 0
17 3 0.693117 0.639168 0.367442 0 0 0
18 1 0.740021 0.432687 0.313151 0 0 0
19 1 0.833454 0.552456 0.285868 0 0 0
20 4 0.685725 0.718297 0.238161 0 0 0
21 1 0.711175 0.706856 0.452084 0 0 0
22 1 0.619321 0.594373 0.388422 0 0 0
23 3 0.562452 0.216556 0.624599 0 0 0
25 1 0.511222 0.15399 0.685834 0 0 0
26 1 0.609363 0.145354 0.567085 0 0 0
28 1 0.548702 0.342553 0.443966 0 0 0
38 3 0.601568 0.309896 0.864014 0 0 0
39 3 0.513505 0.409717 0.892702 0 0 0
40 1 0.582835 0.209629 0.904822 0 0 0
41 1 0.667587 0.343781 0.922053 0 0 0
43 1 0.520628 0.500448 0.829238 0 0 0
44 1 0.51616 0.441033 0.99976 0 0 0
65 3 0.640074 0.863287 0.245696 0 0 0
66 3 0.52464 0.900669 0.231205 0 0 0
67 1 0.665496 0.91041 0.3407 0 0 0
68 1 0.677631 0.919707 0.164042 0 0 0
74 3 0.669224 0.629803 0.113021 0 0 0
75 3 0.55925 0.634344 0.0653346 0 0 0
76 1 0.723105 0.657542 0.0330988 0 0 0
77 1 0.682618 0.522003 0.130458 0 0 0
78 4 0.489524 0.520606 0.0734287 0 0 0
79 1 0.547531 0.705205 -0.018897 0 0 0
80 1 0.524067 0.672253 0.153004 0 0 0
81 2 0.48699 0.472515 -0.0176621 0 0 0
ITEM: TIMESTEP
100
ITEM: NUMBER OF ATOMS
82
ITEM: BOX BOUNDS ss ss ss
-6.55682 6.6729
-4.37835 5.4647
-4.32141 5.45222
ITEM: ATOMS id type xs ys zs ix iy iz
24 3 0.498629 0.299376 0.521099 0 0 0
27 4 0.423319 0.210959 0.452584 0 0 0
29 1 0.460055 0.381887 0.574101 0 0 0
30 2 0.369281 0.185052 0.522563 0 0 0
31 3 0.372051 0.269054 0.331041 0 0 0
32 3 0.29348 0.38231 0.360582 0 0 0
33 1 0.429 0.307432 0.259888 0 0 0
34 1 0.33341 0.18557 0.279271 0 0 0
35 4 0.199836 0.325588 0.425999 0 0 0
36 1 0.275986 0.430089 0.262462 0 0 0
37 1 0.327097 0.462369 0.423204 0 0 0
42 4 0.413956 0.347664 0.868862 0 0 0
45 2 0.412251 0.316431 0.769364 0 0 0
46 2 0.410502 0.26209 0.927954 0 0 0
47 3 0.101905 0.360259 0.356496 0 0 0
48 3 0.0776435 0.262039 0.237288 0 0 0
49 1 0.102616 0.4651 0.319442 0 0 0
50 1 0.038606 0.35319 0.427997 0 0 0
51 4 0.146151 0.278544 0.120548 0 0 0
52 1 0.000702427 0.280542 0.201281 0 0 0
53 1 0.0822717 0.157221 0.273309 0 0 0
54 2 0.135699 0.374715 0.083657 0 0 0
55 2 0.122202 0.213169 0.0460182 0 0 0
56 3 0.197706 0.331081 0.579269 0 0 0
57 3 0.145867 0.205251 0.643139 0 0 0
58 1 0.274082 0.335223 0.621327 0 0 0
59 1 0.158981 0.42328 0.613243 0 0 0
60 4 0.198051 0.0795518 0.604284 0 0 0
61 1 0.0670962 0.198407 0.610936 0 0 0
62 1 0.147473 0.213848 0.75451 0 0 0
63 2 0.190562 0.0693331 0.500688 0 0 0
64 2 0.159019 0.00103162 0.647827 0 0 0
69 4 0.453257 0.832017 0.320061 0 0 0
70 1 0.503368 0.897959 0.127267 0 0 0
71 1 0.51953 1.0119 0.26036 0 0 0
72 2 0.465723 0.729777 0.31398 0 0 0
73 2 0.384005 0.847021 0.274773 0 0 0
82 2 0.4202 0.543835 0.0794168 0 0 0
1 3 0.953552 0.674293 0.475018 0 0 0
2 3 0.883068 0.585194 0.564175 0 0 0
3 1 0.909541 0.739723 0.407168 0 0 0
4 1 1.00285 0.610107 0.412923 0 0 0
5 1 1.00024 0.739335 0.53953 0 0 0
6 4 0.825747 0.479683 0.485853 0 0 0
7 1 0.830551 0.651214 0.619021 0 0 0
8 1 0.930189 0.534534 0.640638 0 0 0
9 3 0.776583 0.367244 0.564135 0 0 0
10 3 0.690247 0.413881 0.660454 0 0 0
11 1 0.747292 0.291397 0.492877 0 0 0
12 1 0.833877 0.314673 0.624918 0 0 0
13 4 0.630876 0.297532 0.717689 0 0 0
14 1 0.639769 0.483685 0.607682 0 0 0
15 1 0.725923 0.472238 0.742319 0 0 0
16 3 0.773261 0.523262 0.357516 0 0 0
17 3 0.691423 0.63716 0.367499 0 0 0
18 1 0.739076 0.433073 0.311933 0 0 0
19 1 0.832059 0.554434 0.285735 0 0 0
20 4 0.679619 0.716561 0.237289 0 0 0
21 1 0.711321 0.706498 0.450234 0 0 0
22 1 0.618169 0.592824 0.392049 0 0 0
23 3 0.562741 0.216826 0.62492 0 0 0
25 1 0.511529 0.154007 0.68572 0 0 0
26 1 0.60993 0.146009 0.567321 0 0 0
28 1 0.549072 0.342894 0.444263 0 0 0
38 3 0.601017 0.309576 0.864842 0 0 0
39 3 0.513152 0.409644 0.893165 0 0 0
40 1 0.581909 0.209284 0.9051 0 0 0
41 1 0.666951 0.342935 0.923376 0 0 0
43 1 0.520479 0.500363 0.829762 0 0 0
44 1 0.515598 0.441001 1.00028 0 0 0
65 3 0.642078 0.862299 0.246457 0 0 0
66 3 0.52738 0.905012 0.234001 0 0 0
67 1 0.668789 0.907243 0.341981 0 0 0
68 1 0.68093 0.917959 0.165267 0 0 0
74 3 0.663419 0.632169 0.109796 0 0 0
75 3 0.552317 0.632972 0.0627852 0 0 0
76 1 0.713934 0.669487 0.0295908 0 0 0
77 1 0.683615 0.525926 0.122825 0 0 0
78 4 0.492505 0.508826 0.0622937 0 0 0
79 1 0.541516 0.696109 -0.0276621 0 0 0
80 1 0.511782 0.675671 0.144938 0 0 0
81 2 0.492658 0.469844 -0.0336895 0 0 0
ITEM: TIMESTEP
125
ITEM: NUMBER OF ATOMS
82
ITEM: BOX BOUNDS ss ss ss
-6.55682 6.6729
-4.37835 5.4647
-4.32141 5.45222
ITEM: ATOMS id type xs ys zs ix iy iz
24 3 0.498928 0.299635 0.521362 0 0 0
27 4 0.423651 0.211222 0.452855 0 0 0
29 1 0.460349 0.382183 0.574342 0 0 0
30 2 0.369658 0.185218 0.522872 0 0 0
31 3 0.372317 0.269145 0.331281 0 0 0
32 3 0.293608 0.38228 0.360637 0 0 0
33 1 0.429236 0.307575 0.260104 0 0 0
34 1 0.333774 0.185533 0.279598 0 0 0
35 4 0.199953 0.325513 0.426006 0 0 0
36 1 0.276122 0.429905 0.262438 0 0 0
37 1 0.327122 0.46246 0.423204 0 0 0
42 4 0.413554 0.347881 0.868933 0 0 0
45 2 0.411993 0.316584 0.769451 0 0 0
46 2 0.409809 0.262347 0.928075 0 0 0
47 3 0.102014 0.360239 0.35653 0 0 0
48 3 0.0776672 0.262009 0.237363 0 0 0
49 1 0.102751 0.465069 0.319446 0 0 0
50 1 0.0387245 0.353235 0.428055 0 0 0
51 4 0.146122 0.278475 0.120563 0 0 0
52 1 0.000712356 0.280539 0.201418 0 0 0
53 1 0.0822841 0.157194 0.273394 0 0 0
54 2 0.135648 0.374636 0.0836558 0 0 0
55 2 0.122128 0.213085 0.0460723 0 0 0
56 3 0.197817 0.331041 0.579273 0 0 0
57 3 0.145939 0.20525 0.643162 0 0 0
58 1 0.274193 0.335154 0.621332 0 0 0
59 1 0.159116 0.423267 0.613228 0 0 0
60 4 0.198085 0.0795234 0.604304 0 0 0
61 1 0.0671643 0.198447 0.61097 0 0 0
62 1 0.147557 0.213857 0.754531 0 0 0
63 2 0.190583 0.0693072 0.500709 0 0 0
64 2 0.159032 0.00102652 0.647854 0 0 0
69 4 0.457712 0.836106 0.324999 0 0 0
70 1 0.504698 0.900995 0.129904 0 0 0
71 1 0.524209 1.01538 0.262607 0 0 0
72 2 0.470609 0.733983 0.31833 0 0 0
73 2 0.387651 0.851394 0.282688 0 0 0
82 2 0.421427 0.524533 0.0737086 0 0 0
1 3 0.95417 0.674256 0.476507 0 0 0
2 3 0.883025 0.584944 0.564689 0 0 0
3 1 0.91058 0.740353 0.409051 0 0 0
4 1 1.00354 0.610152 0.414581 0 0 0
5 1 1.00078 0.73836 0.542176 0 0 0
6 4 0.824988 0.480804 0.485158 0 0 0
7 1 0.830988 0.651059 0.62018 0 0 0
8 1 0.930093 0.533398 0.640369 0 0 0
9 3 0.776611 0.367965 0.565195 0 0 0
10 3 0.690306 0.414308 0.661084 0 0 0
11 1 0.748337 0.291331 0.494106 0 0 0
12 1 0.834493 0.317155 0.62626 0 0 0
13 4 0.630832 0.297495 0.718457 0 0 0
14 1 0.639572 0.483807 0.608621 0 0 0
15 1 0.72545 0.472671 0.743429 0 0 0
16 3 0.772555 0.523254 0.357107 0 0 0
17 3 0.689334 0.63655 0.367068 0 0 0
18 1 0.738675 0.433486 0.310375 0 0 0
19 1 0.830772 0.556641 0.28535 0 0 0
20 4 0.675031 0.71454 0.237566 0 0 0
21 1 0.710402 0.705635 0.449399 0 0 0
22 1 0.617053 0.590826 0.394326 0 0 0
23 3 0.563065 0.217084 0.625104 0 0 0
25 1 0.51182 0.153886 0.685645 0 0 0
26 1 0.610429 0.146528 0.567489 0 0 0
28 1 0.549398 0.343164 0.444521 0 0 0
38 3 0.600645 0.309356 0.865264 0 0 0
39 3 0.51275 0.409605 0.893607 0 0 0
40 1 0.581146 0.209005 0.905285 0 0 0
41 1 0.666394 0.342313 0.924389 0 0 0
43 1 0.520322 0.500349 0.830281 0 0 0
44 1 0.515088 0.440847 1.00071 0 0 0
65 3 0.64325 0.863019 0.246782 0 0 0
66 3 0.530331 0.907968 0.235996 0 0 0
67 1 0.671868 0.90561 0.34236 0 0 0
68 1 0.683569 0.916284 0.165472 0 0 0
74 3 0.658457 0.63497 0.107836 0 0 0
75 3 0.546997 0.6317 0.060905 0 0 0
76 1 0.706675 0.678027 0.028118 0 0 0
77 1 0.683188 0.529662 0.11769 0 0 0
78 4 0.495729 0.500756 0.0546301 0 0 0
79 1 0.537004 0.689621 -0.0333533 0 0 0
80 1 0.502139 0.676917 0.138968 0 0 0
81 2 0.498334 0.467878 -0.0439362 0 0 0
ITEM: TIMESTEP
150
ITEM: NUMBER OF ATOMS
82
ITEM: BOX BOUNDS ss ss ss
-6.55709 6.73807
-4.37835 5.63987
-4.82738 5.4758
ITEM: ATOMS id type xs ys zs ix iy iz
24 3 0.49673 0.294605 0.543868 0 0 0
27 4 0.42183 0.207701 0.478908 0 0 0
29 1 0.458338 0.37569 0.594133 0 0 0
30 2 0.368135 0.182134 0.545344 0 0 0
31 3 0.370747 0.264526 0.363547 0 0 0
32 3 0.292309 0.375573 0.391262 0 0 0
33 1 0.427377 0.302344 0.296048 0 0 0
34 1 0.332485 0.182283 0.314547 0 0 0
35 4 0.199112 0.319752 0.453231 0 0 0
36 1 0.274918 0.422245 0.298049 0 0 0
37 1 0.32557 0.454449 0.450575 0 0 0
42 4 0.411174 0.341971 0.873392 0 0 0
45 2 0.409772 0.311153 0.779043 0 0 0
46 2 0.407197 0.258011 0.92956 0 0 0
47 3 0.101649 0.353925 0.387348 0 0 0
48 3 0.0773428 0.257402 0.274343 0 0 0
49 1 0.102413 0.456912 0.352142 0 0 0
50 1 0.0386801 0.347111 0.455218 0 0 0
51 4 0.145408 0.273541 0.16349 0 0 0
52 1 0.000753719 0.275636 0.240304 0 0 0
53 1 0.0819258 0.154422 0.308533 0 0 0
54 2 0.134968 0.368011 0.128464 0 0 0
55 2 0.121488 0.20928 0.0928653 0 0 0
56 3 0.196976 0.325211 0.59862 0 0 0
57 3 0.145316 0.201655 0.659239 0 0 0
58 1 0.272975 0.329222 0.638521 0 0 0
59 1 0.158491 0.415849 0.630814 0 0 0
60 4 0.197164 0.0780991 0.622375 0 0 0
61 1 0.0669243 0.195013 0.62871 0 0 0
62 1 0.146934 0.210119 0.764883 0 0 0
63 2 0.189689 0.0680659 0.524105 0 0 0
64 2 0.158281 0.000997474 0.663691 0 0 0
69 4 0.459224 0.823899 0.360801 0 0 0
70 1 0.503263 0.886627 0.174252 0 0 0
71 1 0.524955 0.999861 0.299363 0 0 0
72 2 0.471912 0.723674 0.353253 0 0 0
73 2 0.38868 0.839683 0.323415 0 0 0
82 2 0.420775 0.5023 0.114664 0 0 0
1 3 0.949771 0.662358 0.502096 0 0 0
2 3 0.878438 0.574814 0.584618 0 0 0
3 1 0.906849 0.727966 0.438151 0 0 0
4 1 0.998994 0.599441 0.443328 0 0 0
5 1 0.996156 0.724683 0.565054 0 0 0
6 4 0.820359 0.472764 0.509266 0 0 0
7 1 0.826876 0.639726 0.637737 0 0 0
8 1 0.925118 0.523425 0.656394 0 0 0
9 3 0.772773 0.362322 0.585149 0 0 0
10 3 0.686703 0.407225 0.676928 0 0 0
11 1 0.744875 0.286424 0.518277 0 0 0
12 1 0.830568 0.312958 0.643512 0 0 0
13 4 0.627833 0.292466 0.730947 0 0 0
14 1 0.636218 0.475649 0.62726 0 0 0
15 1 0.721737 0.464561 0.754988 0 0 0
16 3 0.767788 0.514961 0.386984 0 0 0
17 3 0.684515 0.624158 0.397428 0 0 0
18 1 0.734991 0.426274 0.342188 0 0 0
19 1 0.825695 0.548876 0.319569 0 0 0
20 4 0.668352 0.701782 0.274437 0 0 0
21 1 0.705445 0.692517 0.4752 0 0 0
22 1 0.612999 0.578705 0.424054 0 0 0
23 3 0.560498 0.213363 0.642285 0 0 0
25 1 0.509571 0.151078 0.699438 0 0 0
26 1 0.607833 0.144325 0.587552 0 0 0
28 1 0.546956 0.337331 0.471001 0 0 0
38 3 0.597313 0.303821 0.870345 0 0 0
39 3 0.509968 0.402385 0.897049 0 0 0
40 1 0.57775 0.205205 0.907959 0 0 0
41 1 0.662704 0.335935 0.926645 0 0 0
43 1 0.517624 0.491633 0.83716 0 0 0
44 1 0.512138 0.43296 0.998741 0 0 0
65 3 0.641611 0.847881 0.283414 0 0 0
66 3 0.529646 0.894313 0.274297 0 0 0
67 1 0.671165 0.889119 0.373804 0 0 0
68 1 0.682136 0.899069 0.205757 0 0 0
74 3 0.651827 0.62576 0.15037 0 0 0
75 3 0.54063 0.619617 0.105602 0 0 0
76 1 0.698069 0.672121 0.0750751 0 0 0
77 1 0.679263 0.52357 0.157433 0 0 0
78 4 0.495741 0.486962 0.0964113 0 0 0
79 1 0.530936 0.673826 0.0145717 0 0 0
80 1 0.493482 0.664615 0.177634 0 0 0
81 2 0.500464 0.457782 0.00188975 0 0 0
ITEM: TIMESTEP
175
ITEM: NUMBER OF ATOMS
82
ITEM: BOX BOUNDS ss ss ss
-6.55709 6.73807
-4.37835 5.63987
-4.82738 5.4758
ITEM: ATOMS id type xs ys zs ix iy iz
24 3 0.496901 0.294711 0.544051 0 0 0
27 4 0.422022 0.207827 0.479086 0 0 0
29 1 0.458515 0.375822 0.594307 0 0 0
30 2 0.368329 0.182264 0.545532 0 0 0
31 3 0.370959 0.264596 0.363694 0 0 0
32 3 0.292429 0.375556 0.391307 0 0 0
33 1 0.427599 0.302481 0.296237 0 0 0
34 1 0.332781 0.182298 0.314681 0 0 0
35 4 0.199232 0.31969 0.453246 0 0 0
36 1 0.275046 0.422133 0.298047 0 0 0
37 1 0.325619 0.454509 0.450594 0 0 0
42 4 0.410877 0.342135 0.873363 0 0 0
45 2 0.409596 0.311223 0.779041 0 0 0
46 2 0.406654 0.258241 0.929607 0 0 0
47 3 0.101767 0.353915 0.387384 0 0 0
48 3 0.0773879 0.257379 0.274417 0 0 0
49 1 0.102561 0.45689 0.352149 0 0 0
50 1 0.0388065 0.347167 0.455274 0 0 0
51 4 0.145405 0.273478 0.16351 0 0 0
52 1 0.000786924 0.275636 0.240432 0 0 0
53 1 0.0819616 0.154402 0.308618 0 0 0
54 2 0.134948 0.367939 0.128468 0 0 0
55 2 0.121441 0.209202 0.0929212 0 0 0
56 3 0.197089 0.325167 0.598635 0 0 0
57 3 0.145391 0.201646 0.659265 0 0 0
58 1 0.273086 0.329148 0.638541 0 0 0
59 1 0.158628 0.415829 0.630817 0 0 0
60 4 0.197199 0.0780611 0.622398 0 0 0
61 1 0.0669955 0.195046 0.628744 0 0 0
62 1 0.147018 0.210114 0.764909 0 0 0
63 2 0.189714 0.0680322 0.524129 0 0 0
64 2 0.158293 0.00098208 0.663718 0 0 0
69 4 0.46217 0.82554 0.363469 0 0 0
70 1 0.504006 0.887116 0.175754 0 0 0
71 1 0.527373 1.00148 0.299961 0 0 0
72 2 0.474495 0.725334 0.354581 0 0 0
73 2 0.39107 0.842248 0.328591 0 0 0
82 2 0.421965 0.493277 0.110873 0 0 0
1 3 0.949929 0.662349 0.502602 0 0 0
2 3 0.87805 0.574875 0.584586 0 0 0
3 1 0.907392 0.728424 0.43879 0 0 0
4 1 0.999138 0.599349 0.443969 0 0 0
5 1 0.996299 0.724067 0.566175 0 0 0
6 4 0.81977 0.473428 0.508622 0 0 0
7 1 0.826607 0.639951 0.637658 0 0 0
8 1 0.924505 0.523173 0.656243 0 0 0
9 3 0.772387 0.362722 0.585175 0 0 0
10 3 0.686672 0.407505 0.677187 0 0 0
11 1 0.744645 0.286814 0.51823 0 0 0
12 1 0.830471 0.313723 0.643216 0 0 0
13 4 0.627764 0.292475 0.731353 0 0 0
14 1 0.635984 0.475996 0.628053 0 0 0
15 1 0.721731 0.464537 0.75547 0 0 0
16 3 0.767319 0.51527 0.386609 0 0 0
17 3 0.683025 0.623734 0.397076 0 0 0
18 1 0.735052 0.426745 0.340931 0 0 0
19 1 0.824895 0.550731 0.319386 0 0 0
20 4 0.666211 0.701146 0.274642 0 0 0
21 1 0.703769 0.69168 0.475268 0 0 0
22 1 0.612033 0.577005 0.424096 0 0 0
23 3 0.560671 0.213462 0.642407 0 0 0
25 1 0.509741 0.150946 0.699431 0 0 0
26 1 0.608114 0.144572 0.587679 0 0 0
28 1 0.547149 0.33744 0.471189 0 0 0
38 3 0.597065 0.303755 0.870538 0 0 0
39 3 0.50967 0.402371 0.897301 0 0 0
40 1 0.577314 0.205103 0.908048 0 0 0
41 1 0.662343 0.335691 0.927143 0 0 0
43 1 0.517482 0.491692 0.837543 0 0 0
44 1 0.511755 0.432774 0.999015 0 0 0
65 3 0.642658 0.84837 0.283407 0 0 0
66 3 0.531389 0.895636 0.2753 0 0 0
67 1 0.673382 0.888693 0.373548 0 0 0
68 1 0.683567 0.898134 0.205311 0 0 0
74 3 0.649405 0.627398 0.149457 0 0 0
75 3 0.538142 0.618575 0.104933 0 0 0
76 1 0.694248 0.676471 0.0744978 0 0 0
77 1 0.67902 0.526031 0.154918 0 0 0
78 4 0.497497 0.483518 0.0935205 0 0 0
79 1 0.528081 0.671646 0.0132396 0 0 0
80 1 0.489507 0.663246 0.176168 0 0 0
81 2 0.504297 0.455932 -0.00136043 0 0 0
ITEM: TIMESTEP
200
ITEM: NUMBER OF ATOMS
82
ITEM: BOX BOUNDS ss ss ss
-6.55709 6.73807
-4.37835 5.63987
-4.82738 5.4758
ITEM: ATOMS id type xs ys zs ix iy iz
24 3 0.497035 0.294805 0.544197 0 0 0
27 4 0.422169 0.207904 0.479235 0 0 0
29 1 0.45865 0.375907 0.594453 0 0 0
30 2 0.368473 0.182368 0.545675 0 0 0
31 3 0.371149 0.264658 0.363808 0 0 0
32 3 0.292545 0.375542 0.391347 0 0 0
33 1 0.427807 0.302604 0.29641 0 0 0
34 1 0.333045 0.182323 0.314762 0 0 0
35 4 0.199351 0.319635 0.453263 0 0 0
36 1 0.275168 0.422045 0.298048 0 0 0
37 1 0.325676 0.454557 0.450613 0 0 0
42 4 0.410598 0.342273 0.873309 0 0 0
45 2 0.409453 0.311276 0.779012 0 0 0
46 2 0.406166 0.25846 0.929628 0 0 0
47 3 0.101885 0.353909 0.387422 0 0 0
48 3 0.0774387 0.257358 0.274492 0 0 0
49 1 0.102709 0.456873 0.352156 0 0 0
50 1 0.0389327 0.347227 0.455331 0 0 0
51 4 0.14541 0.273416 0.163535 0 0 0
52 1 0.000826496 0.275636 0.240558 0 0 0
53 1 0.0820048 0.154385 0.308708 0 0 0
54 2 0.13494 0.367868 0.128475 0 0 0
55 2 0.121405 0.209126 0.0929807 0 0 0
56 3 0.197203 0.325123 0.598653 0 0 0
57 3 0.145468 0.201635 0.659292 0 0 0
58 1 0.273198 0.329071 0.638562 0 0 0
59 1 0.158769 0.415808 0.630827 0 0 0
60 4 0.197235 0.0780203 0.622423 0 0 0
61 1 0.067069 0.195078 0.628778 0 0 0
62 1 0.147103 0.210106 0.764935 0 0 0
63 2 0.189741 0.0679952 0.524155 0 0 0
64 2 0.158305 0.000964486 0.663746 0 0 0
69 4 0.464656 0.8268 0.365745 0 0 0
70 1 0.504571 0.88711 0.177052 0 0 0
71 1 0.529295 1.00262 0.300224 0 0 0
72 2 0.47636 0.726604 0.35566 0 0 0
73 2 0.393067 0.844542 0.333122 0 0 0
82 2 0.422927 0.486748 0.107348 0 0 0
1 3 0.949944 0.662298 0.503032 0 0 0
2 3 0.877604 0.575141 0.584332 0 0 0
3 1 0.907799 0.728846 0.439183 0 0 0
4 1 0.999153 0.599215 0.44442 0 0 0
5 1 0.996365 0.723563 0.566976 0 0 0
6 4 0.819249 0.473742 0.508434 0 0 0
7 1 0.826191 0.640302 0.637393 0 0 0
8 1 0.923801 0.523096 0.656217 0 0 0
9 3 0.772074 0.363233 0.58469 0 0 0
10 3 0.686468 0.407629 0.677584 0 0 0
11 1 0.744145 0.2873 0.517944 0 0 0
12 1 0.830252 0.314099 0.642639 0 0 0
13 4 0.627782 0.292623 0.73152 0 0 0
14 1 0.635763 0.476403 0.628748 0 0 0
15 1 0.721828 0.464431 0.755789 0 0 0
16 3 0.766696 0.515989 0.385931 0 0 0
17 3 0.681918 0.622898 0.396902 0 0 0
18 1 0.73524 0.42716 0.339763 0 0 0
19 1 0.824278 0.55237 0.319309 0 0 0
20 4 0.664738 0.701155 0.274394 0 0 0
21 1 0.70198 0.690878 0.475378 0 0 0
22 1 0.61111 0.575462 0.423472 0 0 0
23 3 0.560756 0.213473 0.642573 0 0 0
25 1 0.509872 0.150854 0.699435 0 0 0
26 1 0.608327 0.144743 0.587813 0 0 0
28 1 0.547297 0.337499 0.471368 0 0 0
38 3 0.596783 0.303738 0.87081 0 0 0
39 3 0.509446 0.402349 0.897466 0 0 0
40 1 0.576972 0.205072 0.908114 0 0 0
41 1 0.662041 0.335552 0.927515 0 0 0
43 1 0.517339 0.491771 0.837889 0 0 0
44 1 0.511403 0.432607 0.999262 0 0 0
65 3 0.643761 0.848377 0.283361 0 0 0
66 3 0.532675 0.896672 0.276102 0 0 0
67 1 0.675286 0.888387 0.373187 0 0 0
68 1 0.68468 0.897494 0.204777 0 0 0
74 3 0.647765 0.628529 0.148758 0 0 0
75 3 0.536296 0.617577 0.104725 0 0 0
76 1 0.691249 0.679851 0.0738049 0 0 0
77 1 0.679042 0.528095 0.152759 0 0 0
78 4 0.498856 0.480922 0.0915938 0 0 0
79 1 0.525555 0.670288 0.0129589 0 0 0
80 1 0.486899 0.661377 0.175977 0 0 0
81 2 0.50778 0.454237 -0.00331212 0 0 0
ITEM: TIMESTEP
225
ITEM: NUMBER OF ATOMS
82
ITEM: BOX BOUNDS ss ss ss
-6.55709 6.73807
-4.37835 5.63987
-4.82738 5.4758
ITEM: ATOMS id type xs ys zs ix iy iz
24 3 0.497131 0.294839 0.544345 0 0 0
27 4 0.422293 0.207958 0.479357 0 0 0
29 1 0.458748 0.375968 0.594577 0 0 0
30 2 0.368577 0.182447 0.545785 0 0 0
31 3 0.371323 0.264707 0.363901 0 0 0
32 3 0.29266 0.375532 0.391379 0 0 0
33 1 0.428009 0.302717 0.296569 0 0 0
34 1 0.333286 0.182355 0.314803 0 0 0
35 4 0.199471 0.319587 0.453281 0 0 0
36 1 0.275288 0.421971 0.298051 0 0 0
37 1 0.325743 0.454596 0.45063 0 0 0
42 4 0.410354 0.342413 0.873232 0 0 0
45 2 0.409329 0.311318 0.778965 0 0 0
46 2 0.405712 0.258668 0.929628 0 0 0