ITEM: TIMESTEP
0
ITEM: NUMBER OF ATOMS
26
ITEM: BOX BOUNDS ss ss ss
-3.15626 3.04235
-2.11974 2.04904
-1.84497 1.97245
ITEM: ATOMS id type xs ys zs ix iy iz
1 3 0.911059 0.740879 0.44084 0 0 0
2 3 0.66788 0.776964 0.518607 0 0 0
3 1 0.937476 0.72289 0.15872 0 0 0
4 1 0.975753 0.526552 0.56672 0 0 0
5 1 0.998387 0.949527 0.539388 0 0 0
6 4 0.541842 0.507796 0.369548 0 0 0
7 1 0.61136 0.997601 0.39467 0 0 0
8 1 0.641403 0.800165 0.800627 0 0 0
9 3 0.526165 0.213108 0.586016 0 0 0
10 3 0.326938 0.215562 0.82928 0 0 0
11 1 0.512739 0.00951837 0.407448 0 0 0
12 1 0.671928 0.176917 0.742224 0 0 0
13 4 0.125743 0.214653 0.626533 0 0 0
14 1 0.329482 0.427322 0.99738 0 0 0
15 1 0.329303 0.00239878 0.995541 0 0 0
16 2 0.00161326 0.199351 0.802039 0 0 0
17 2 0.123871 0.00716517 0.483649 0 0 0
18 3 0.717759 0.594363 0.289083 0 0 0
19 3 0.503364 0.737374 0.411178 0 0 0
20 1 0.727426 0.596959 0.00261957 0 0 0
21 1 0.852328 0.735503 0.393556 0 0 0
22 4 0.314438 0.589206 0.24757 0 0 0
23 1 0.500515 0.992569 0.341126 0 0 0
24 1 0.49357 0.726767 0.701419 0 0 0
25 2 0.120506 0.777177 0.312486 0 0 0
26 2 0.283123 0.25713 0.355083 0 0 0
ITEM: TIMESTEP
25
ITEM: NUMBER OF ATOMS
26
ITEM: BOX BOUNDS ss ss ss
-3.16722 3.19559
-2.1215 2.27532
-1.87307 2.01109
ITEM: ATOMS id type xs ys zs ix iy iz
1 3 0.973556 0.724492 0.516737 0 0 0
2 3 0.748972 0.755262 0.650688 0 0 0
3 1 1.00886 0.713587 0.23902 0 0 0
4 1 1.02215 0.5087 0.62929 0 0 0
5 1 1.04538 0.933468 0.610328 0 0 0
6 4 0.658533 0.455973 0.494964 0 0 0
7 1 0.699932 0.976777 0.538652 0 0 0
8 1 0.710035 0.776579 0.921928 0 0 0
9 3 0.541304 0.188543 0.635724 0 0 0
10 3 0.327447 0.188607 0.847533 0 0 0
11 1 0.515489 0.0153882 0.429529 0 0 0
12 1 0.666715 0.104962 0.795067 0 0 0
13 4 0.12189 0.179896 0.662965 0 0 0
14 1 0.322372 0.384357 1.01859 0 0 0
15 1 0.323974 -0.0163575 1.00556 0 0 0
16 2 -0.0062971 0.175349 0.823666 0 0 0
17 2 0.115542 0.00141202 0.494264 0 0 0
18 3 0.57189 0.54249 0.157432 0 0 0
19 3 0.389449 0.720218 0.291417 0 0 0
20 1 0.655608 0.498213 -0.0914295 0 0 0
21 1 0.688772 0.703631 0.0795307 0 0 0
22 4 0.218277 0.562116 0.153441 0 0 0
23 1 0.397715 0.961383 0.227629 0 0 0
24 1 0.354432 0.73248 0.578397 0 0 0
25 2 0.1106 0.666142 0.306106 0 0 0
26 2 0.253421 0.352218 0.255683 0 0 0
ITEM: TIMESTEP
50
ITEM: NUMBER OF ATOMS
26
ITEM: BOX BOUNDS ss ss ss
-3.12721 3.6562
-2.17278 2.2165
-2.12257 2.11114
ITEM: ATOMS id type xs ys zs ix iy iz
1 3 0.926273 0.734699 0.571841 0 0 0
2 3 0.707938 0.735335 0.675374 0 0 0
3 1 0.939549 0.731493 0.314236 0 0 0
4 1 0.995771 0.530194 0.664395 0 0 0
5 1 1.00137 0.937664 0.657124 0 0 0
6 4 0.610308 0.482201 0.497121 0 0 0
7 1 0.651633 0.962506 0.607028 0 0 0
8 1 0.689082 0.723196 0.930156 0 0 0
9 3 0.509766 0.201839 0.648736 0 0 0
10 3 0.313036 0.208845 0.840984 0 0 0
11 1 0.489169 0.0346185 0.460504 0 0 0
12 1 0.620779 0.104566 0.805587 0 0 0
13 4 0.12237 0.197656 0.668499 0 0 0
14 1 0.308388 0.404737 0.999122 0 0 0
15 1 0.307657 0.00408592 0.989751 0 0 0
16 2 0.00881087 0.182188 0.827091 0 0 0
17 2 0.116666 0.00605603 0.530899 0 0 0
18 3 0.533522 0.599901 0.194732 0 0 0
19 3 0.33909 0.764354 0.281439 0 0 0
20 1 0.523432 0.422419 0.0143547 0 0 0
21 1 0.633552 0.770262 0.0908837 0 0 0
22 4 0.174435 0.590205 0.164468 0 0 0
23 1 0.338252 0.997739 0.197298 0 0 0
24 1 0.318103 0.776655 0.537936 0 0 0
25 2 0.0619645 0.656135 0.309344 0 0 0
26 2 0.208658 0.372086 0.230179 0 0 0
ITEM: TIMESTEP
75
ITEM: NUMBER OF ATOMS
26
ITEM: BOX BOUNDS ss ss ss
-3.12721 3.6562
-2.17278 2.2165
-2.12257 2.11114
ITEM: ATOMS id type xs ys zs ix iy iz
1 3 0.930644 0.728967 0.584031 0 0 0
2 3 0.711842 0.723272 0.684589 0 0 0
3 1 0.944551 0.733137 0.326823 0 0 0
4 1 1.00533 0.526737 0.672958 0 0 0
5 1 1.00341 0.932028 0.67691 0 0 0
6 4 0.604647 0.483971 0.498465 0 0 0
7 1 0.651662 0.950285 0.636057 0 0 0
8 1 0.698328 0.686823 0.938446 0 0 0
9 3 0.515919 0.203524 0.646854 0 0 0
10 3 0.320535 0.214757 0.845492 0 0 0
11 1 0.494002 0.0337071 0.461375 0 0 0
12 1 0.62869 0.10986 0.80309 0 0 0
13 4 0.133844 0.201627 0.668738 0 0 0
14 1 0.318503 0.415414 0.996725 0 0 0
15 1 0.316883 0.0139251 0.99771 0 0 0
16 2 0.0210055 0.186617 0.829356 0 0 0
17 2 0.130308 0.00453161 0.539827 0 0 0
18 3 0.52233 0.601939 0.196876 0 0 0
19 3 0.328189 0.773226 0.268057 0 0 0
20 1 0.503662 0.415237 0.0283535 0 0 0
21 1 0.626173 0.759739 0.0853848 0 0 0
22 4 0.161886 0.598946 0.147541 0 0 0
23 1 0.329139 1.00057 0.164553 0 0 0
24 1 0.307011 0.800701 0.522581 0 0 0
25 2 0.0461344 0.655375 0.290024 0 0 0
26 2 0.19495 0.376723 0.198268 0 0 0
ITEM: TIMESTEP
100
ITEM: NUMBER OF ATOMS
26
ITEM: BOX BOUNDS ss ss ss
-3.12721 3.6562
-2.17278 2.2165
-2.12257 2.11114
ITEM: ATOMS id type xs ys zs ix iy iz
1 3 0.931478 0.72358 0.592896 0 0 0
2 3 0.71186 0.713223 0.692457 0 0 0
3 1 0.945591 0.736058 0.336398 0 0 0
4 1 1.00717 0.51943 0.675779 0 0 0
5 1 1.00308 0.923341 0.694436 0 0 0
6 4 0.601226 0.486789 0.499183 0 0 0
7 1 0.650071 0.941846 0.658537 0 0 0
8 1 0.702268 0.662918 0.944297 0 0 0
9 3 0.520537 0.199491 0.647866 0 0 0
10 3 0.33029 0.219322 0.849862 0 0 0
11 1 0.498235 0.0302398 0.462414 0 0 0
12 1 0.637084 0.109712 0.799439 0 0 0
13 4 0.145021 0.204556 0.669667 0 0 0
14 1 0.329403 0.425863 0.993118 0 0 0
15 1 0.326158 0.0238043 1.01027 0 0 0
16 2 0.0317308 0.193877 0.828714 0 0 0
17 2 0.143538 0.00356196 0.547486 0 0 0
18 3 0.514688 0.600911 0.199503 0 0 0
19 3 0.319768 0.777778 0.25651 0 0 0
20 1 0.493578 0.412143 0.0349449 0 0 0
21 1 0.620113 0.754431 0.0845428 0 0 0
22 4 0.151518 0.607144 0.132601 0 0 0
23 1 0.324152 1.00005 0.141933 0 0 0
24 1 0.296674 0.815763 0.508824 0 0 0
25 2 0.0338603 0.663412 0.271669 0 0 0
26 2 0.180489 0.382394 0.17573 0 0 0
ITEM: TIMESTEP
125
ITEM: NUMBER OF ATOMS
26
ITEM: BOX BOUNDS ss ss ss
-3.12721 3.6562
-2.17278 2.2165
-2.12257 2.11114
ITEM: ATOMS id type xs ys zs ix iy iz
1 3 0.927782 0.716568 0.605979 0 0 0
2 3 0.707786 0.709419 0.698875 0 0 0
3 1 0.944194 0.7576 0.353113 0 0 0
4 1 0.997605 0.499739 0.664579 0 0 0
5 1 1.00312 0.89838 0.733844 0 0 0
6 4 0.597862 0.486123 0.499667 0 0 0
7 1 0.64575 0.937733 0.671392 0 0 0
8 1 0.697392 0.650931 0.949371 0 0 0
9 3 0.529943 0.194422 0.645581 0 0 0
10 3 0.345171 0.22095 0.859286 0 0 0
11 1 0.503103 0.0249876 0.461461 0 0 0
12 1 0.650987 0.105249 0.788868 0 0 0
13 4 0.16131 0.20606 0.678138 0 0 0
14 1 0.347939 0.433503 0.992816 0 0 0
15 1 0.343414 0.0321444 1.02727 0 0 0
16 2 0.0477921 0.20668 0.83691 0 0 0
17 2 0.158548 -0.000830948 0.567264 0 0 0
18 3 0.507198 0.596904 0.199325 0 0 0
19 3 0.312228 0.777604 0.244455 0 0 0
20 1 0.484077 0.403703 0.0408582 0 0 0
21 1 0.613632 0.744374 0.0800241 0 0 0
22 4 0.142995 0.618541 0.104855 0 0 0
23 1 0.322951 1.00017 0.13037 0 0 0
24 1 0.282673 0.81616 0.494623 0 0 0
25 2 0.0195775 0.700463 0.214462 0 0 0
26 2 0.154556 0.394055 0.165697 0 0 0
ITEM: TIMESTEP
150
ITEM: NUMBER OF ATOMS
26
ITEM: BOX BOUNDS ss ss ss
-3.12721 3.6562
-2.17278 2.2165
-2.12257 2.11114
ITEM: ATOMS id type xs ys zs ix iy iz
1 3 0.927561 0.716559 0.606691 0 0 0
2 3 0.707536 0.710154 0.698469 0 0 0
3 1 0.944589 0.760568 0.354446 0 0 0
4 1 0.996685 0.498597 0.662855 0 0 0
5 1 1.00326 0.896357 0.737299 0 0 0
6 4 0.59777 0.48586 0.499375 0 0 0
7 1 0.645622 0.938261 0.669814 0 0 0
8 1 0.696467 0.65222 0.948987 0 0 0
9 3 0.530579 0.194389 0.645475 0 0 0
10 3 0.345901 0.220127 0.860018 0 0 0
11 1 0.503546 0.0246435 0.461546 0 0 0
12 1 0.651814 0.105402 0.788423 0 0 0
13 4 0.161855 0.205913 0.679501 0 0 0
14 1 0.34899 0.432327 0.994135 0 0 0
15 1 0.34444 0.0309036 1.02734 0 0 0
16 2 0.048589 0.207185 0.838815 0 0 0
17 2 0.158496 -0.00116094 0.569017 0 0 0
18 3 0.50705 0.596275 0.198992 0 0 0
19 3 0.312086 0.777018 0.244202 0 0 0
20 1 0.483712 0.402573 0.0410541 0 0 0
21 1 0.613388 0.743276 0.0790812 0 0 0
22 4 0.143054 0.619235 0.102569 0 0 0
23 1 0.32336 1.00036 0.131855 0 0 0
24 1 0.281945 0.813933 0.494462 0 0 0
25 2 0.0191531 0.705182 0.207365 0 0 0
26 2 0.152132 0.395474 0.167293 0 0 0
ITEM: TIMESTEP
175
ITEM: NUMBER OF ATOMS
26
ITEM: BOX BOUNDS ss ss ss
-3.12721 3.6562
-2.17278 2.2165
-2.12257 2.11114
ITEM: ATOMS id type xs ys zs ix iy iz
1 3 0.92747 0.716638 0.607267 0 0 0
2 3 0.707172 0.710417 0.698082 0 0 0
3 1 0.94486 0.762855 0.355538 0 0 0
4 1 0.995935 0.497719 0.661515 0 0 0
5 1 1.00332 0.894708 0.739956 0 0 0
6 4 0.597833 0.486115 0.499175 0 0 0
7 1 0.645486 0.93875 0.668607 0 0 0
8 1 0.695753 0.653284 0.948732 0 0 0
9 3 0.530938 0.193985 0.645617 0 0 0
10 3 0.346687 0.219517 0.86051 0 0 0
11 1 0.503967 0.0243819 0.461691 0 0 0
12 1 0.652557 0.105546 0.788071 0 0 0
13 4 0.162312 0.205833 0.680582 0 0 0
14 1 0.349868 0.431326 0.995276 0 0 0
15 1 0.345296 0.0298123 1.02745 0 0 0
16 2 0.049287 0.20764 0.840258 0 0 0
17 2 0.158531 -0.00134135 0.570348 0 0 0
18 3 0.506845 0.595527 0.19879 0 0 0
19 3 0.311949 0.776599 0.244021 0 0 0
20 1 0.483341 0.401637 0.0413422 0 0 0
21 1 0.613174 0.742325 0.0782976 0 0 0
22 4 0.143081 0.619849 0.100644 0 0 0
23 1 0.323692 1.00048 0.133074 0 0 0
24 1 0.281295 0.812153 0.494318 0 0 0
25 2 0.0188765 0.709105 0.201473 0 0 0
26 2 0.150054 0.396771 0.168448 0 0 0
ITEM: TIMESTEP
200
ITEM: NUMBER OF ATOMS
26
ITEM: BOX BOUNDS ss ss ss
-3.12721 3.6562
-2.17278 2.2165
-2.12257 2.11114
ITEM: ATOMS id type xs ys zs ix iy iz
1 3 0.927273 0.716651 0.607875 0 0 0
2 3 0.706882 0.710965 0.697732 0 0 0
3 1 0.945127 0.765192 0.356679 0 0 0
4 1 0.995151 0.496859 0.660146 0 0 0
5 1 1.00337 0.893037 0.742686 0 0 0
6 4 0.597771 0.485952 0.499114 0 0 0
7 1 0.645328 0.939191 0.667363 0 0 0
8 1 0.694988 0.654386 0.948491 0 0 0
9 3 0.531529 0.19384 0.645619 0 0 0
10 3 0.347423 0.21875 0.86121 0 0 0
11 1 0.504456 0.0240089 0.461898 0 0 0
12 1 0.653387 0.105682 0.787775 0 0 0
13 4 0.162903 0.205791 0.681709 0 0 0
14 1 0.350863 0.430193 0.996559 0 0 0
15 1 0.346226 0.028614 1.02752 0 0 0
16 2 0.0500606 0.208137 0.841757 0 0 0
17 2 0.158624 -0.00146137 0.57168 0 0 0
18 3 0.506578 0.594873 0.19855 0 0 0
19 3 0.311813 0.776087 0.243847 0 0 0
20 1 0.482875 0.400505 0.041743 0 0 0
21 1 0.612889 0.741158 0.0774705 0 0 0
22 4 0.143075 0.620621 0.098528 0 0 0
23 1 0.324073 1.00064 0.134399 0 0 0
24 1 0.280547 0.810263 0.494153 0 0 0
25 2 0.0186369 0.713391 0.195057 0 0 0
26 2 0.147731 0.398314 0.169524 0 0 0
ITEM: TIMESTEP
225
ITEM: NUMBER OF ATOMS
26
ITEM: BOX BOUNDS ss ss ss
-3.12721 3.6562
-2.17278 2.2165
-2.12257 2.11114
ITEM: ATOMS id type xs ys zs ix iy iz
1 3 0.926632 0.716871 0.609504 0 0 0
2 3 0.705842 0.712362 0.696833 0 0 0
3 1 0.945752 0.771489 0.359951 0 0 0
4 1 0.992836 0.494727 0.656529 0 0 0
5 1 1.00326 0.888498 0.750007 0 0 0
6 4 0.597487 0.486082 0.49881 0 0 0
7 1 0.644703 0.940648 0.663524 0 0 0
8 1 0.692701 0.658028 0.947759 0 0 0
9 3 0.533329 0.192716 0.646563 0 0 0
10 3 0.350059 0.216093 0.863344 0 0 0
11 1 0.506443 0.0225812 0.46308 0 0 0
12 1 0.65621 0.106389 0.787424 0 0 0
13 4 0.164949 0.205815 0.685056 0 0 0
14 1 0.354082 0.426032 1.00119 0 0 0
15 1 0.349041 0.0241423 1.02765 0 0 0
16 2 0.0526308 0.209554 0.845944 0 0 0
17 2 0.159246 -0.00138307 0.575076 0 0 0
18 3 0.50566 0.592019 0.198432 0 0 0
19 3 0.311146 0.774819 0.24333 0 0 0
20 1 0.480886 0.396427 0.0437126 0 0 0
21 1 0.611822 0.73673 0.0747138 0 0 0
22 4 0.14299 0.623867 0.0916718 0 0 0
23 1 0.325544 1.00113 0.138914 0 0 0
24 1 0.278013 0.80443 0.493638 0 0 0
25 2 0.0183172 0.72731 0.174985 0 0 0
26 2 0.139995 0.404263 0.171445 0 0 0
ITEM: TIMESTEP
243
ITEM: NUMBER OF ATOMS
26
ITEM: BOX BOUNDS ss ss ss
-3.12721 3.6562
-2.17278 2.2165
-2.12257 2.11114
ITEM: ATOMS id type xs ys zs ix iy iz
1 3 0.926278 0.717023 0.610108 0 0 0
2 3 0.705342 0.713172 0.696297 0 0 0
3 1 0.945912 0.773703 0.361121 0 0 0
4 1 0.991868 0.494124 0.655347 0 0 0
5 1 1.00308 0.886991 0.752531 0 0 0
6 4 0.597291 0.485825 0.499175 0 0 0
7 1 0.64437 0.941295 0.661702 0 0 0
8 1 0.691688 0.659856 0.947489 0 0 0
9 3 0.534352 0.192336 0.647075 0 0 0
10 3 0.351189 0.214587 0.864536 0 0 0
11 1 0.507634 0.0217004 0.464028 0 0 0
12 1 0.657613 0.106891 0.787779 0 0 0
13 4 0.166025 0.205866 0.686393 0 0 0
14 1 0.355558 0.423718 1.00364 0 0 0
15 1 0.350225 0.0217025 1.02752 0 0 0
16 2 0.0538267 0.210002 0.847541 0 0 0
17 2 0.159697 -0.00111531 0.576088 0 0 0
18 3 0.504975 0.590646 0.198348 0 0 0
19 3 0.310937 0.774233 0.243266 0 0 0
20 1 0.479639 0.394143 0.0451031 0 0 0
21 1 0.611226 0.734083 0.0733469 0 0 0
22 4 0.142839 0.625944 0.0884571 0 0 0
23 1 0.326449 1.00151 0.141275 0 0 0
24 1 0.276768 0.801818 0.493456 0 0 0
25 2 0.0184502 0.733952 0.166122 0 0 0
26 2 0.136347 0.407633 0.171339 0 0 0
ITEM: TIMESTEP
244
ITEM: NUMBER OF ATOMS
26
ITEM: BOX BOUNDS ss ss ss
-3.01206 3.68711
-2.18767 2.23311
-1.94162 2.23766
ITEM: ATOMS id type xs ys zs ix iy iz
1 3 0.92073 0.715274 0.574777 0 0 0
2 3 0.697015 0.711509 0.662013 0 0 0
3 1 0.94062 0.771578 0.322528 0 0 0
4 1 0.987144 0.493971 0.620574 0 0 0
5 1 0.998506 0.884029 0.719055 0 0 0
6 4 0.587618 0.485625 0.462502 0 0 0
7 1 0.635286 0.937946 0.627012 0 0 0
8 1 0.683185 0.658531 0.91655 0 0 0
9 3 0.523926 0.194415 0.612116 0 0 0
10 3 0.33839 0.216395 0.832562 0 0 0
11 1 0.496837 0.0248973 0.426792 0 0 0
12 1 0.648712 0.109494 0.754762 0 0 0
13 4 0.150945 0.207769 0.65204 0 0 0
14 1 0.342857 0.424044 0.973428 0 0 0
15 1 0.337452 0.0249068 0.997592 0 0 0
16 2 0.0373229 0.211877 0.815302 0 0 0
17 2 0.144519 0.00226546 0.540301 0 0 0
18 3 0.494078 0.589877 0.157547 0 0 0
19 3 0.297712 0.772046 0.203167 0 0 0
20 1 0.468474 0.394672 0.00241418 0 0 0
21 1 0.601713 0.732179 0.0310048 0 0 0
22 4 0.127435 0.624886 0.0462491 0 0 0
23 1 0.31337 0.997749 0.0998353 0 0 0
24 1 0.263042 0.799452 0.456579 0 0 0
25 2 0.00148758 0.732155 0.124912 0 0 0
26 2 0.120838 0.408111 0.13028 0 0 0
ITEM: TIMESTEP
245
ITEM: NUMBER OF ATOMS
26
ITEM: BOX BOUNDS ss ss ss
-3.01209 3.6871
-2.18766 2.23316
-1.94153 2.2376
ITEM: ATOMS id type xs ys zs ix iy iz
1 3 0.920722 0.71528 0.574777 0 0 0
2 3 0.697002 0.71148 0.662049 0 0 0
3 1 0.940625 0.771621 0.322553 0 0 0
4 1 0.987119 0.493945 0.620549 0 0 0
5 1 0.998501 0.883983 0.719124 0 0 0
6 4 0.587605 0.485722 0.46238 0 0 0
7 1 0.635274 0.937968 0.626952 0 0 0
8 1 0.683162 0.658586 0.916534 0 0 0
9 3 0.523923 0.194317 0.612232 0 0 0
10 3 0.33846 0.216363 0.832557 0 0 0
11 1 0.496882 0.0248734 0.426808 0 0 0
12 1 0.648753 0.109514 0.754773 0 0 0
13 4 0.150971 0.207766 0.652085 0 0 0
14 1 0.342899 0.423968 0.97352 0 0 0
15 1 0.337487 0.0248179 0.997614 0 0 0
16 2 0.0373645 0.211882 0.815345 0 0 0
17 2 0.144539 0.00226982 0.540321 0 0 0
18 3 0.494114 0.589749 0.157617 0 0 0
19 3 0.297675 0.772075 0.203133 0 0 0
20 1 0.468432 0.394606 0.00243131 0 0 0
21 1 0.601696 0.732098 0.0309362 0 0 0
22 4 0.127465 0.624951 0.0461183 0 0 0
23 1 0.313402 0.997728 0.0998978 0 0 0
24 1 0.263014 0.799365 0.456574 0 0 0
25 2 0.00148213 0.732346 0.124662 0 0 0
26 2 0.120733 0.408186 0.130258 0 0 0
