LAMMPS (10 Feb 2015)
units           real
atom_style      full
boundary        s s s
dielectric      72
special_bonds   lj/coul 0.0 0.0 1.0

pair_style      lj/cut/coul/debye 0.142 10
bond_style      harmonic
angle_style     harmonic
dihedral_style  charmm
improper_style  none
kspace_style    none

read_data       data._polymer_4
  orthogonal box = (-50 -50 -50) to (50 50 50)
  1 by 1 by 1 MPI processor grid
  reading atoms ...
  42 atoms
  scanning bonds ...
  4 = max bonds/atom
  scanning angles ...
  6 = max angles/atom
  scanning dihedrals ...
  16 = max dihedrals/atom
  reading bonds ...
  41 bonds
  reading angles ...
  75 angles
  reading dihedrals ...
  99 dihedrals
  4 = max # of 1-2 neighbors
  9 = max # of 1-3 neighbors
  12 = max # of special neighbors

pair_modify     mix geometric
neighbor        2.0 multi
neigh_modify    every 2 delay 4 check yes
thermo_style    multi

variable        input index in._polymer_4
variable        sname index _polymer_4

print                          .
.
print ==========================================
==========================================
print "500 steps CG Minimization"
500 steps CG Minimization
print ==========================================
==========================================
print                          .
.

dump            1 all atom 25 ${sname}.min.lammpstrj
dump            1 all atom 25 _polymer_4.min.lammpstrj
dump_modify     1 image yes scale yes
thermo          10
min_style       sd
minimize        1.0e-4 1.0e-4 500 5000
WARNING: Resetting reneighboring criteria during minimization (../min.cpp:168)
Neighbor list info ...
  1 neighbor list requests
  update every 1 steps, delay 0 steps, check yes
  master list distance cutoff = 12
Memory usage per processor = 1.07246 Mbytes
---------------- Step        0 ----- CPU =      0.0000 (sec) ----------------
TotEng   =   1906787.5332 KinEng   =         0.0000 Temp     =         0.0000 
PotEng   =   1906787.5332 E_bond   =       139.6314 E_angle  =       169.2706 
E_dihed  =         6.0096 E_impro  =         0.0000 E_vdwl   =   1906472.6513 
E_coul   =        -0.0296 E_long   =         0.0000 Press    = 1628651009.9029 
Volume   =       321.1067 
---------------- Step       10 ----- CPU =      0.0012 (sec) ----------------
TotEng   =       399.3668 KinEng   =         0.0000 Temp     =         0.0000 
PotEng   =       399.3668 E_bond   =        63.3955 E_angle  =       179.9178 
E_dihed  =         8.2689 E_impro  =         0.0000 E_vdwl   =       147.8751 
E_coul   =        -0.0905 E_long   =         0.0000 Press    =     93696.4775 
Volume   =       321.1067 
---------------- Step       20 ----- CPU =      0.0027 (sec) ----------------
TotEng   =       146.3937 KinEng   =         0.0000 Temp     =         0.0000 
PotEng   =       146.3937 E_bond   =        12.8400 E_angle  =        84.0355 
E_dihed  =         7.9971 E_impro  =         0.0000 E_vdwl   =        41.5796 
E_coul   =        -0.0585 E_long   =         0.0000 Press    =     34983.3283 
Volume   =       331.3711 
---------------- Step       30 ----- CPU =      0.0046 (sec) ----------------
TotEng   =        64.3744 KinEng   =         0.0000 Temp     =         0.0000 
PotEng   =        64.3744 E_bond   =         6.4181 E_angle  =        21.6628 
E_dihed  =         8.2810 E_impro  =         0.0000 E_vdwl   =        28.0643 
E_coul   =        -0.0518 E_long   =         0.0000 Press    =     21127.9703 
Volume   =       347.2910 
---------------- Step       40 ----- CPU =      0.0065 (sec) ----------------
TotEng   =        46.7149 KinEng   =         0.0000 Temp     =         0.0000 
PotEng   =        46.7149 E_bond   =         2.1502 E_angle  =        14.6415 
E_dihed  =         7.9859 E_impro  =         0.0000 E_vdwl   =        21.9832 
E_coul   =        -0.0458 E_long   =         0.0000 Press    =     12731.1767 
Volume   =       347.2910 
---------------- Step       50 ----- CPU =      0.0085 (sec) ----------------
TotEng   =        44.2005 KinEng   =         0.0000 Temp     =         0.0000 
PotEng   =        44.2005 E_bond   =         2.0328 E_angle  =        14.0358 
E_dihed  =         7.8776 E_impro  =         0.0000 E_vdwl   =        20.2978 
E_coul   =        -0.0436 E_long   =         0.0000 Press    =     10166.5517 
Volume   =       347.2910 
---------------- Step       60 ----- CPU =      0.0104 (sec) ----------------
TotEng   =        42.8839 KinEng   =         0.0000 Temp     =         0.0000 
PotEng   =        42.8839 E_bond   =         2.0502 E_angle  =        13.8810 
E_dihed  =         7.7966 E_impro  =         0.0000 E_vdwl   =        19.1980 
E_coul   =        -0.0419 E_long   =         0.0000 Press    =      8439.9536 
Volume   =       347.2910 
---------------- Step       70 ----- CPU =      0.0123 (sec) ----------------
TotEng   =        41.9308 KinEng   =         0.0000 Temp     =         0.0000 
PotEng   =        41.9308 E_bond   =         2.1002 E_angle  =        13.8873 
E_dihed  =         7.7180 E_impro  =         0.0000 E_vdwl   =        18.2658 
E_coul   =        -0.0405 E_long   =         0.0000 Press    =      6953.6678 
Volume   =       347.2910 
---------------- Step       80 ----- CPU =      0.0143 (sec) ----------------
TotEng   =        41.1230 KinEng   =         0.0000 Temp     =         0.0000 
PotEng   =        41.1230 E_bond   =         2.1717 E_angle  =        14.0113 
E_dihed  =         7.6268 E_impro  =         0.0000 E_vdwl   =        17.3523 
E_coul   =        -0.0390 E_long   =         0.0000 Press    =      5485.9730 
Volume   =       347.2910 
---------------- Step       90 ----- CPU =      0.0162 (sec) ----------------
TotEng   =        40.3322 KinEng   =         0.0000 Temp     =         0.0000 
PotEng   =        40.3322 E_bond   =         2.2723 E_angle  =        14.2899 
E_dihed  =         7.4931 E_impro  =         0.0000 E_vdwl   =        16.3085 
E_coul   =        -0.0316 E_long   =         0.0000 Press    =      3815.1472 
Volume   =       347.2910 
---------------- Step      100 ----- CPU =      0.0181 (sec) ----------------
TotEng   =        39.0654 KinEng   =         0.0000 Temp     =         0.0000 
PotEng   =        39.0654 E_bond   =         2.4664 E_angle  =        15.0477 
E_dihed  =         7.0728 E_impro  =         0.0000 E_vdwl   =        14.5077 
E_coul   =        -0.0292 E_long   =         0.0000 Press    =      1377.4838 
Volume   =       347.2910 
---------------- Step      110 ----- CPU =      0.0200 (sec) ----------------
TotEng   =        38.9694 KinEng   =         0.0000 Temp     =         0.0000 
PotEng   =        38.9694 E_bond   =         2.4493 E_angle  =        15.0798 
E_dihed  =         7.0335 E_impro  =         0.0000 E_vdwl   =        14.4359 
E_coul   =        -0.0292 E_long   =         0.0000 Press    =      1052.6537 
Volume   =       347.2910 
---------------- Step      120 ----- CPU =      0.0219 (sec) ----------------
TotEng   =        38.8864 KinEng   =         0.0000 Temp     =         0.0000 
PotEng   =        38.8864 E_bond   =         2.4509 E_angle  =        15.1075 
E_dihed  =         6.9940 E_impro  =         0.0000 E_vdwl   =        14.3630 
E_coul   =        -0.0291 E_long   =         0.0000 Press    =       970.7468 
Volume   =       347.2910 
---------------- Step      130 ----- CPU =      0.0239 (sec) ----------------
TotEng   =        38.7951 KinEng   =         0.0000 Temp     =         0.0000 
PotEng   =        38.7951 E_bond   =         2.4521 E_angle  =        15.1353 
E_dihed  =         6.9501 E_impro  =         0.0000 E_vdwl   =        14.2865 
E_coul   =        -0.0290 E_long   =         0.0000 Press    =       888.7091 
Volume   =       347.2910 
---------------- Step      140 ----- CPU =      0.0258 (sec) ----------------
TotEng   =        38.6716 KinEng   =         0.0000 Temp     =         0.0000 
PotEng   =        38.6716 E_bond   =         2.4529 E_angle  =        15.1687 
E_dihed  =         6.8902 E_impro  =         0.0000 E_vdwl   =        14.1887 
E_coul   =        -0.0288 E_long   =         0.0000 Press    =       788.9499 
Volume   =       347.2910 
---------------- Step      150 ----- CPU =      0.0278 (sec) ----------------
TotEng   =        38.2773 KinEng   =         0.0000 Temp     =         0.0000 
PotEng   =        38.2773 E_bond   =         2.4497 E_angle  =        15.2501 
E_dihed  =         6.6982 E_impro  =         0.0000 E_vdwl   =        13.9077 
E_coul   =        -0.0284 E_long   =         0.0000 Press    =       521.4246 
Volume   =       347.2910 
---------------- Step      160 ----- CPU =      0.0296 (sec) ----------------
TotEng   =        37.7574 KinEng   =         0.0000 Temp     =         0.0000 
PotEng   =        37.7574 E_bond   =         2.4325 E_angle  =        15.3142 
E_dihed  =         6.4602 E_impro  =         0.0000 E_vdwl   =        13.5964 
E_coul   =        -0.0459 E_long   =         0.0000 Press    =       323.6770 
Volume   =       347.2910 
---------------- Step      170 ----- CPU =      0.0315 (sec) ----------------
TotEng   =        37.7032 KinEng   =         0.0000 Temp     =         0.0000 
PotEng   =        37.7032 E_bond   =         2.4288 E_angle  =        15.3142 
E_dihed  =         6.4353 E_impro  =         0.0000 E_vdwl   =        13.5706 
E_coul   =        -0.0458 E_long   =         0.0000 Press    =       317.3338 
Volume   =       347.2910 
---------------- Step      180 ----- CPU =      0.0334 (sec) ----------------
TotEng   =        37.6080 KinEng   =         0.0000 Temp     =         0.0000 
PotEng   =        37.6080 E_bond   =         2.4227 E_angle  =        15.3144 
E_dihed  =         6.3916 E_impro  =         0.0000 E_vdwl   =        13.5250 
E_coul   =        -0.0457 E_long   =         0.0000 Press    =       304.5741 
Volume   =       347.2910 
---------------- Step      189 ----- CPU =      0.0353 (sec) ----------------
TotEng   =        37.0965 KinEng   =         0.0000 Temp     =         0.0000 
PotEng   =        37.0965 E_bond   =         2.3830 E_angle  =        15.3224 
E_dihed  =         6.1621 E_impro  =         0.0000 E_vdwl   =        13.2740 
E_coul   =        -0.0451 E_long   =         0.0000 Press    =       307.0606 
Volume   =       387.1715 
Loop time of 0.035279 on 1 procs for 189 steps with 42 atoms

Minimization stats:
  Stopping criterion = energy tolerance
  Energy initial, next-to-last, final = 
         1906787.53324      37.0995010159      37.0964726271
  Force two-norm initial, final = 4.2923e+07 2.54601
  Force max component initial, final = 2.52406e+07 1.03683
  Final line search alpha, max atom move = 0.107926 0.111902
  Iterations, force evaluations = 189 362

Pair  time (%) = 0.0236359 (66.9969)
Bond  time (%) = 0.00994658 (28.194)
Neigh time (%) = 0.000110149 (0.312223)
Comm  time (%) = 7.24792e-05 (0.205446)
Outpt time (%) = 0.000705004 (1.99836)
Other time (%) = 0.000808954 (2.29302)

Nlocal:    42 ave 42 max 42 min
Histogram: 1 0 0 0 0 0 0 0 0 0
Nghost:    0 ave 0 max 0 min
Histogram: 1 0 0 0 0 0 0 0 0 0
Neighs:    745 ave 745 max 745 min
Histogram: 1 0 0 0 0 0 0 0 0 0

Total # of neighbors = 745
Ave neighs/atom = 17.7381
Ave special neighs/atom = 5.52381
Neighbor list builds = 3
Dangerous builds = 0
min_style       cg
minimize        1.0e-4 1.0e-4 500 5000
WARNING: Resetting reneighboring criteria during minimization (../min.cpp:168)
Memory usage per processor = 1.07246 Mbytes
---------------- Step      189 ----- CPU =      0.0000 (sec) ----------------
TotEng   =        37.0965 KinEng   =         0.0000 Temp     =         0.0000 
PotEng   =        37.0965 E_bond   =         2.3830 E_angle  =        15.3224 
E_dihed  =         6.1621 E_impro  =         0.0000 E_vdwl   =        13.2740 
E_coul   =        -0.0451 E_long   =         0.0000 Press    =       307.4291 
Volume   =       386.7074 
---------------- Step      190 ----- CPU =      0.0004 (sec) ----------------
TotEng   =        37.0939 KinEng   =         0.0000 Temp     =         0.0000 
PotEng   =        37.0939 E_bond   =         2.3826 E_angle  =        15.3221 
E_dihed  =         6.1608 E_impro  =         0.0000 E_vdwl   =        13.2734 
E_coul   =        -0.0451 E_long   =         0.0000 Press    =       262.6060 
Volume   =       386.7074 
Loop time of 0.00037694 on 1 procs for 1 steps with 42 atoms

Minimization stats:
  Stopping criterion = energy tolerance
  Energy initial, next-to-last, final = 
         37.0964726271      37.0964726271      37.0938569362
  Force two-norm initial, final = 2.54601 2.54841
  Force max component initial, final = 1.03683 0.837175
  Final line search alpha, max atom move = 0.0964476 0.0807435
  Iterations, force evaluations = 1 2

Pair  time (%) = 0.000196218 (52.0557)
Bond  time (%) = 8.79765e-05 (23.3397)
Neigh time (%) = 0 (0)
Comm  time (%) = 9.53674e-07 (0.253004)
Outpt time (%) = 0 (0)
Other time (%) = 9.17912e-05 (24.3517)

Nlocal:    42 ave 42 max 42 min
Histogram: 1 0 0 0 0 0 0 0 0 0
Nghost:    0 ave 0 max 0 min
Histogram: 1 0 0 0 0 0 0 0 0 0
Neighs:    745 ave 745 max 745 min
Histogram: 1 0 0 0 0 0 0 0 0 0

Total # of neighbors = 745
Ave neighs/atom = 17.7381
Ave special neighs/atom = 5.52381
Neighbor list builds = 0
Dangerous builds = 0
#now minimize the entire system
minimize        1.0e-4 1.0e-4 500 5000
WARNING: Resetting reneighboring criteria during minimization (../min.cpp:168)
Memory usage per processor = 1.07246 Mbytes
---------------- Step      190 ----- CPU =      0.0000 (sec) ----------------
TotEng   =        37.0939 KinEng   =         0.0000 Temp     =         0.0000 
PotEng   =        37.0939 E_bond   =         2.3826 E_angle  =        15.3221 
E_dihed  =         6.1608 E_impro  =         0.0000 E_vdwl   =        13.2734 
E_coul   =        -0.0451 E_long   =         0.0000 Press    =       262.5758 
Volume   =       386.7520 
---------------- Step      191 ----- CPU =      0.0004 (sec) ----------------
TotEng   =        37.0913 KinEng   =         0.0000 Temp     =         0.0000 
PotEng   =        37.0913 E_bond   =         2.3856 E_angle  =        15.3204 
E_dihed  =         6.1601 E_impro  =         0.0000 E_vdwl   =        13.2704 
E_coul   =        -0.0451 E_long   =         0.0000 Press    =       245.0428 
Volume   =       386.7520 
Loop time of 0.000370026 on 1 procs for 1 steps with 42 atoms

Minimization stats:
  Stopping criterion = energy tolerance
  Energy initial, next-to-last, final = 
         37.0938569362      37.0938569362      37.0913304166
  Force two-norm initial, final = 2.54841 2.43655
  Force max component initial, final = 0.837175 0.897206
  Final line search alpha, max atom move = 0.119449 0.107171
  Iterations, force evaluations = 1 2

Pair  time (%) = 0.000197411 (53.3505)
Bond  time (%) = 8.4877e-05 (22.9381)
Neigh time (%) = 0 (0)
Comm  time (%) = 9.53674e-07 (0.257732)
Outpt time (%) = 0 (0)
Other time (%) = 8.67844e-05 (23.4536)

Nlocal:    42 ave 42 max 42 min
Histogram: 1 0 0 0 0 0 0 0 0 0
Nghost:    0 ave 0 max 0 min
Histogram: 1 0 0 0 0 0 0 0 0 0
Neighs:    745 ave 745 max 745 min
Histogram: 1 0 0 0 0 0 0 0 0 0

Total # of neighbors = 745
Ave neighs/atom = 17.7381
Ave special neighs/atom = 5.52381
Neighbor list builds = 0
Dangerous builds = 0
undump          1

Please see the log.cite file for references relevant to this simulation

