ITEM: TIMESTEP
0
ITEM: NUMBER OF ATOMS
50
ITEM: BOX BOUNDS ss ss ss
-5.46372 4.76119
-2.96657 3.6827
-2.94261 3.74155
ITEM: ATOMS id type xs ys zs ix iy iz
1 3 0.945669 0.850123 0.402673 0 0 0
2 3 0.802258 0.852853 0.474206 0 0 0
3 1 0.950111 0.864871 0.240204 0 0 0
4 1 0.993064 0.70984 0.4464 0 0 0
5 1 0.999022 0.975184 0.470007 0 0 0
6 4 0.724543 0.687245 0.382479 0 0 0
7 1 0.759445 0.998496 0.436324 0 0 0
8 1 0.800327 0.840065 0.637096 0 0 0
9 3 0.724658 0.483515 0.476347 0 0 0
10 3 0.635166 0.472288 0.663896 0 0 0
11 1 0.693769 0.37302 0.365843 0 0 0
12 1 0.824195 0.442337 0.519355 0 0 0
13 4 0.596166 0.266709 0.727599 0 0 0
14 1 0.547661 0.563323 0.642052 0 0 0
15 1 0.68772 0.53907 0.789571 0 0 0
16 3 0.648865 0.725856 0.195016 0 0 0
17 3 0.516192 0.829386 0.236048 0 0 0
18 1 0.63098 0.585186 0.114991 0 0 0
19 1 0.706629 0.820956 0.0951443 0 0 0
20 4 0.438546 0.844205 0.0520978 0 0 0
21 1 0.532081 0.980861 0.293973 0 0 0
22 1 0.46016 0.744071 0.345761 0 0 0
23 2 0.352211 0.912055 0.0894413 0 0 0
24 2 0.416233 0.700567 0.0094118 0 0 0
25 3 0.525136 0.134543 0.584651 0 0 0
26 3 0.403116 0.228672 0.484248 0 0 0
27 1 0.494221 0.00150392 0.66794 0 0 0
28 1 0.593223 0.0827941 0.469939 0 0 0
29 4 0.35047 0.0917274 0.328472 0 0 0
30 1 0.429919 0.372883 0.418567 0 0 0
31 1 0.327732 0.255733 0.596823 0 0 0
32 2 0.267081 0.0269007 0.382985 0 0 0
33 3 0.319542 0.184408 0.132124 0 0 0
34 3 0.19783 0.322864 0.135489 0 0 0
35 1 0.404269 0.269491 0.0791304 0 0 0
36 1 0.303206 0.0631062 0.0249022 0 0 0
37 4 0.0763635 0.205579 0.137947 0 0 0
38 1 0.197335 0.416713 0.00149607 0 0 0
39 1 0.199748 0.421708 0.265808 0 0 0
40 2 0.000978004 0.305987 0.149015 0 0 0
41 2 0.0762012 0.122063 0.266204 0 0 0
42 3 0.722944 0.262615 0.845569 0 0 0
43 3 0.587808 0.359656 0.856881 0 0 0
44 1 0.737257 0.154569 0.967794 0 0 0
45 1 0.800122 0.376289 0.857411 0 0 0
46 4 0.484468 0.210047 0.832063 0 0 0
47 1 0.577296 0.470158 0.735726 0 0 0
48 1 0.578484 0.445363 0.998504 0 0 0
49 2 0.353514 0.295022 0.84885 0 0 0
50 2 0.495796 0.101377 0.938229 0 0 0
ITEM: TIMESTEP
25
ITEM: NUMBER OF ATOMS
50
ITEM: BOX BOUNDS ss ss ss
-5.46382 4.76204
-3.01042 3.68582
-2.94364 3.92363
ITEM: ATOMS id type xs ys zs ix iy iz
1 3 0.949267 0.856103 0.389859 0 0 0
2 3 0.805688 0.86298 0.453134 0 0 0
3 1 0.954142 0.868706 0.231746 0 0 0
4 1 0.994431 0.715497 0.434299 0 0 0
5 1 1.0024 0.979029 0.456898 0 0 0
6 4 0.737078 0.69821 0.347383 0 0 0
7 1 0.761795 1.00652 0.419604 0 0 0
8 1 0.802733 0.847317 0.611958 0 0 0
9 3 0.74591 0.494048 0.418441 0 0 0
10 3 0.652712 0.488779 0.586063 0 0 0
11 1 0.713185 0.381547 0.314015 0 0 0
12 1 0.842414 0.452183 0.474993 0 0 0
13 4 0.644824 0.275038 0.641224 0 0 0
14 1 0.559501 0.560862 0.556248 0 0 0
15 1 0.69382 0.587898 0.698634 0 0 0
16 3 0.649305 0.736324 0.178431 0 0 0
17 3 0.516638 0.833572 0.227521 0 0 0
18 1 0.629605 0.595423 0.102832 0 0 0
19 1 0.704244 0.829995 0.0791159 0 0 0
20 4 0.437744 0.847173 0.0496375 0 0 0
21 1 0.5316 0.983092 0.286278 0 0 0
22 1 0.460491 0.746852 0.332585 0 0 0
23 2 0.351325 0.912747 0.0872992 0 0 0
24 2 0.416445 0.703724 0.00892976 0 0 0
25 3 0.541282 0.139525 0.5483 0 0 0
26 3 0.411421 0.231209 0.465516 0 0 0
27 1 0.514612 0.0149528 0.642071 0 0 0
28 1 0.592294 0.0717781 0.425872 0 0 0
29 4 0.352068 0.096601 0.317223 0 0 0
30 1 0.430317 0.375406 0.400059 0 0 0
31 1 0.33747 0.254512 0.577984 0 0 0
32 2 0.268396 0.0359124 0.37353 0 0 0
33 3 0.319672 0.189253 0.126993 0 0 0
34 3 0.197825 0.326704 0.131535 0 0 0
35 1 0.40402 0.274046 0.0746669 0 0 0
36 1 0.302904 0.0688712 0.0227755 0 0 0
37 4 0.0763707 0.210272 0.135373 0 0 0
38 1 0.196683 0.41949 0.000797203 0 0 0
39 1 0.200244 0.425301 0.258092 0 0 0
40 2 0.000936848 0.30999 0.145573 0 0 0
41 2 0.0764519 0.128449 0.260904 0 0 0
42 3 0.680455 0.262878 0.850524 0 0 0
43 3 0.556688 0.357458 0.946712 0 0 0
44 1 0.708838 0.117055 0.906713 0 0 0
45 1 0.77334 0.349038 0.868774 0 0 0
46 4 0.443851 0.220868 0.960151 0 0 0
47 1 0.509037 0.472136 0.859619 0 0 0
48 1 0.582545 0.441092 1.07559 0 0 0
49 2 0.378778 0.26808 0.854827 0 0 0
50 2 0.473916 0.0837409 0.913291 0 0 0
ITEM: TIMESTEP
50
ITEM: NUMBER OF ATOMS
50
ITEM: BOX BOUNDS ss ss ss
-5.45566 4.83277
-2.94577 3.79174
-2.95894 4.81703
ITEM: ATOMS id type xs ys zs ix iy iz
1 3 0.952469 0.857657 0.337162 0 0 0
2 3 0.805997 0.855732 0.377374 0 0 0
3 1 0.967714 0.87175 0.198952 0 0 0
4 1 0.997989 0.720358 0.381664 0 0 0
5 1 0.999141 0.982167 0.402215 0 0 0
6 4 0.739841 0.691898 0.282114 0 0 0
7 1 0.764652 0.999721 0.340677 0 0 0
8 1 0.793231 0.842205 0.515814 0 0 0
9 3 0.741738 0.486689 0.359922 0 0 0
10 3 0.653045 0.476164 0.51727 0 0 0
11 1 0.713014 0.377762 0.263372 0 0 0
12 1 0.840667 0.44972 0.398296 0 0 0
13 4 0.63187 0.265411 0.577171 0 0 0
14 1 0.560342 0.547228 0.495108 0 0 0
15 1 0.698443 0.563239 0.618591 0 0 0
16 3 0.648339 0.735012 0.140663 0 0 0
17 3 0.51541 0.827213 0.194479 0 0 0
18 1 0.62823 0.600151 0.0673015 0 0 0
19 1 0.695697 0.838253 0.0516485 0 0 0
20 4 0.430538 0.844426 0.0444752 0 0 0
21 1 0.530192 0.973862 0.250125 0 0 0
22 1 0.466413 0.73385 0.288351 0 0 0
23 2 0.344097 0.901959 0.0863682 0 0 0
24 2 0.411462 0.703074 0.00340825 0 0 0
25 3 0.543297 0.130813 0.479696 0 0 0
26 3 0.411738 0.216186 0.410282 0 0 0
27 1 0.519397 0.000196953 0.557948 0 0 0
28 1 0.597779 0.0745981 0.369402 0 0 0
29 4 0.351029 0.0823331 0.282639 0 0 0
30 1 0.428719 0.360645 0.352036 0 0 0
31 1 0.34439 0.237563 0.517017 0 0 0
32 2 0.267026 0.0269718 0.334465 0 0 0
33 3 0.317342 0.172049 0.112935 0 0 0
34 3 0.197231 0.309932 0.117955 0 0 0
35 1 0.401096 0.254638 0.0639379 0 0 0
36 1 0.299056 0.0515267 0.0225003 0 0 0
37 4 0.0758103 0.196021 0.126918 0 0 0
38 1 0.194357 0.399431 0.000736173 0 0 0
39 1 0.201867 0.410728 0.227653 0 0 0
40 2 0.00141181 0.296324 0.133136 0 0 0
41 2 0.0763311 0.120273 0.240709 0 0 0
42 3 0.650374 0.238569 0.765901 0 0 0
43 3 0.539379 0.332132 0.873002 0 0 0
44 1 0.660986 0.0806988 0.796594 0 0 0
45 1 0.742219 0.307092 0.803974 0 0 0
46 4 0.425925 0.201479 0.878548 0 0 0
47 1 0.50981 0.475139 0.819304 0 0 0
48 1 0.573049 0.358071 1.00409 0 0 0
49 2 0.365997 0.243963 0.780687 0 0 0
50 2 0.458387 0.062216 0.848306 0 0 0
ITEM: TIMESTEP
75
ITEM: NUMBER OF ATOMS
50
ITEM: BOX BOUNDS ss ss ss
-5.45566 4.83277
-2.94577 3.79174
-2.95894 4.81703
ITEM: ATOMS id type xs ys zs ix iy iz
1 3 0.954076 0.860745 0.334065 0 0 0
2 3 0.806724 0.859028 0.370256 0 0 0
3 1 0.971634 0.874916 0.196216 0 0 0
4 1 0.99918 0.724134 0.380119 0 0 0
5 1 0.999326 0.986063 0.399908 0 0 0
6 4 0.740953 0.692182 0.278286 0 0 0
7 1 0.766819 1.00195 0.329915 0 0 0
8 1 0.791548 0.848534 0.508811 0 0 0
9 3 0.739543 0.490243 0.358241 0 0 0
10 3 0.654088 0.477798 0.521581 0 0 0
11 1 0.707045 0.381182 0.263933 0 0 0
12 1 0.838803 0.448784 0.392918 0 0 0
13 4 0.629906 0.269134 0.580093 0 0 0
14 1 0.562202 0.553947 0.503126 0 0 0
15 1 0.704263 0.561026 0.621974 0 0 0
16 3 0.648933 0.737681 0.135067 0 0 0
17 3 0.517247 0.827419 0.192091 0 0 0
18 1 0.629914 0.603115 0.0607598 0 0 0
19 1 0.696283 0.841972 0.0475069 0 0 0
20 4 0.43012 0.848994 0.0440662 0 0 0
21 1 0.532016 0.973188 0.24998 0 0 0
22 1 0.469197 0.731885 0.285214 0 0 0
23 2 0.34422 0.90425 0.0896061 0 0 0
24 2 0.411089 0.708931 7.72582e-06 0 0 0
25 3 0.544289 0.133086 0.476824 0 0 0
26 3 0.413332 0.218712 0.409919 0 0 0
27 1 0.52219 -0.000891609 0.550706 0 0 0
28 1 0.600911 0.0840064 0.365981 0 0 0
29 4 0.352225 0.0824782 0.283262 0 0 0
30 1 0.429846 0.363265 0.351531 0 0 0
31 1 0.346279 0.239129 0.517015 0 0 0
32 2 0.268823 0.0270627 0.336392 0 0 0
33 3 0.318239 0.169412 0.11345 0 0 0
34 3 0.197982 0.307532 0.117727 0 0 0
35 1 0.401729 0.251055 0.0626874 0 0 0
36 1 0.299257 0.0473696 0.0245714 0 0 0
37 4 0.0767303 0.193935 0.130724 0 0 0
38 1 0.19425 0.394135 -0.000887037 0 0 0
39 1 0.20378 0.410721 0.225652 0 0 0
40 2 0.0023878 0.294538 0.135318 0 0 0
41 2 0.0778155 0.121861 0.24629 0 0 0
42 3 0.64554 0.233034 0.768447 0 0 0
43 3 0.536567 0.324977 0.880286 0 0 0
44 1 0.653436 0.074107 0.794436 0 0 0
45 1 0.738389 0.296852 0.809031 0 0 0
46 4 0.419125 0.202014 0.881594 0 0 0
47 1 0.511303 0.473399 0.834863 0 0 0
48 1 0.571 0.33814 1.01255 0 0 0
49 2 0.365623 0.239788 0.776178 0 0 0
50 2 0.448355 0.0582741 0.864605 0 0 0
ITEM: TIMESTEP
100
ITEM: NUMBER OF ATOMS
50
ITEM: BOX BOUNDS ss ss ss
-5.45566 4.83277
-2.94577 3.79174
-2.95894 4.81703
ITEM: ATOMS id type xs ys zs ix iy iz
1 3 0.954192 0.860904 0.333336 0 0 0
2 3 0.806762 0.859724 0.369022 0 0 0
3 1 0.972074 0.8747 0.195515 0 0 0
4 1 0.999072 0.724358 0.379837 0 0 0
5 1 0.999421 0.986359 0.399053 0 0 0
6 4 0.740865 0.69243 0.277698 0 0 0
7 1 0.767209 1.00249 0.327857 0 0 0
8 1 0.791165 0.850005 0.507555 0 0 0
9 3 0.738917 0.491 0.358132 0 0 0
10 3 0.654374 0.478446 0.522704 0 0 0
11 1 0.705411 0.382197 0.264212 0 0 0
12 1 0.838221 0.44846 0.391668 0 0 0
13 4 0.629443 0.270031 0.58081 0 0 0
14 1 0.562701 0.555767 0.505324 0 0 0
15 1 0.705708 0.560521 0.622892 0 0 0
16 3 0.649027 0.738123 0.134103 0 0 0
17 3 0.517433 0.827323 0.191615 0 0 0
18 1 0.630206 0.603632 0.0595628 0 0 0
19 1 0.696345 0.84266 0.0467826 0 0 0
20 4 0.430174 0.850267 0.0438439 0 0 0
21 1 0.532221 0.97264 0.250391 0 0 0
22 1 0.469493 0.730994 0.284233 0 0 0
23 2 0.344346 0.905102 0.0899647 0 0 0
24 2 0.411101 0.710628 -0.00115247 0 0 0
25 3 0.54459 0.13404 0.476102 0 0 0
26 3 0.413771 0.219787 0.409585 0 0 0
27 1 0.522792 -0.000780799 0.548842 0 0 0
28 1 0.60166 0.0865503 0.365159 0 0 0
29 4 0.352622 0.0828334 0.283428 0 0 0
30 1 0.430302 0.364254 0.350979 0 0 0
31 1 0.34677 0.240348 0.516682 0 0 0
32 2 0.269374 0.0274311 0.336946 0 0 0
33 3 0.318514 0.168813 0.113459 0 0 0
34 3 0.1982 0.306865 0.117482 0 0 0
35 1 0.40192 0.250208 0.0621835 0 0 0
36 1 0.299409 0.0462443 0.0251421 0 0 0
37 4 0.0770885 0.193232 0.132174 0 0 0
38 1 0.194016 0.392262 -0.00173136 0 0 0
39 1 0.204392 0.411092 0.224619 0 0 0
40 2 0.00269584 0.293783 0.13627 0 0 0
41 2 0.0785772 0.12257 0.248388 0 0 0
42 3 0.644508 0.231858 0.768974 0 0 0
43 3 0.535968 0.323371 0.88187 0 0 0
44 1 0.65171 0.0726568 0.793821 0 0 0
45 1 0.737581 0.294438 0.810157 0 0 0
46 4 0.417545 0.202545 0.881607 0 0 0
47 1 0.511932 0.473079 0.838596 0 0 0
48 1 0.570351 0.333204 1.01438 0 0 0
49 2 0.366513 0.237894 0.77349 0 0 0
50 2 0.445856 0.0577526 0.86933 0 0 0
ITEM: TIMESTEP
112
ITEM: NUMBER OF ATOMS
50
ITEM: BOX BOUNDS ss ss ss
-5.45566 4.83277
-2.94577 3.79174
-2.95894 4.81703
ITEM: ATOMS id type xs ys zs ix iy iz
1 3 0.95441 0.860434 0.33077 0 0 0
2 3 0.806827 0.861815 0.365525 0 0 0
3 1 0.973 0.871869 0.192925 0 0 0
4 1 0.998298 0.724056 0.379211 0 0 0
5 1 1.00007 0.986364 0.395264 0 0 0
6 4 0.739881 0.69417 0.276338 0 0 0
7 1 0.768591 1.0045 0.321727 0 0 0
8 1 0.790212 0.854992 0.503949 0 0 0
9 3 0.736582 0.493278 0.358469 0 0 0
10 3 0.65548 0.481074 0.526554 0 0 0
11 1 0.699794 0.386239 0.265396 0 0 0
12 1 0.836038 0.447675 0.387627 0 0 0
13 4 0.627626 0.272505 0.583403 0 0 0
14 1 0.564548 0.561934 0.51315 0 0 0
15 1 0.710501 0.558542 0.626134 0 0 0
16 3 0.649086 0.739733 0.131659 0 0 0
17 3 0.517268 0.826991 0.190157 0 0 0
18 1 0.631052 0.605834 0.0559852 0 0 0
19 1 0.696168 0.845632 0.0452175 0 0 0
20 4 0.430471 0.855578 0.0427207 0 0 0
21 1 0.531984 0.970087 0.252881 0 0 0
22 1 0.469395 0.727208 0.280131 0 0 0
23 2 0.34463 0.908921 0.0901364 0 0 0
24 2 0.411312 0.717857 -0.00640061 0 0 0
25 3 0.545676 0.137721 0.474227 0 0 0
26 3 0.415476 0.22419 0.40714 0 0 0
27 1 0.523833 0.000464439 0.5434 0 0 0
28 1 0.604239 0.0939454 0.363505 0 0 0
29 4 0.354323 0.0845834 0.283536 0 0 0
30 1 0.433084 0.367674 0.347 0 0 0
31 1 0.348475 0.247214 0.513756 0 0 0
32 2 0.271531 0.0295196 0.338543 0 0 0
33 3 0.319438 0.166687 0.112639 0 0 0
34 3 0.198937 0.304121 0.115831 0 0 0
35 1 0.402493 0.247172 0.0593458 0 0 0
36 1 0.300001 0.0419935 0.0267338 0 0 0
37 4 0.0786106 0.190411 0.13899 0 0 0
38 1 0.192223 0.383582 -0.00620904 0 0 0
39 1 0.207004 0.413428 0.218873 0 0 0
40 2 0.00388424 0.290427 0.141198 0 0 0
41 2 0.0824493 0.126377 0.257981 0 0 0
42 3 0.641293 0.228049 0.770914 0 0 0
43 3 0.534173 0.317786 0.887265 0 0 0
44 1 0.646018 0.0678158 0.791855 0 0 0
45 1 0.735034 0.286105 0.813954 0 0 0
46 4 0.412459 0.205018 0.880725 0 0 0
47 1 0.514676 0.471602 0.851699 0 0 0
48 1 0.567742 0.315877 1.02044 0 0 0
49 2 0.371998 0.228111 0.762918 0 0 0
50 2 0.436239 0.0579302 0.887713 0 0 0
ITEM: TIMESTEP
113
ITEM: NUMBER OF ATOMS
50
ITEM: BOX BOUNDS ss ss ss
-5.42569 4.84353
-2.95264 3.83204
-3.01871 4.98594
ITEM: ATOMS id type xs ys zs ix iy iz
1 3 0.953274 0.855443 0.328783 0 0 0
2 3 0.805421 0.856882 0.362542 0 0 0
3 1 0.971899 0.866794 0.194871 0 0 0
4 1 0.997243 0.720027 0.375846 0 0 0
5 1 0.999033 0.980513 0.391424 0 0 0
6 4 0.738344 0.690279 0.275958 0 0 0
7 1 0.767118 0.998522 0.320005 0 0 0
8 1 0.788773 0.850065 0.497024 0 0 0
9 3 0.735052 0.490947 0.355634 0 0 0
10 3 0.653764 0.478668 0.519039 0 0 0
11 1 0.698169 0.384564 0.265288 0 0 0
12 1 0.834682 0.445569 0.38402 0 0 0
13 4 0.625901 0.271711 0.574194 0 0 0
14 1 0.562686 0.559061 0.505968 0 0 0
15 1 0.708925 0.555676 0.615723 0 0 0
16 3 0.64736 0.735649 0.135342 0 0 0
17 3 0.515323 0.822239 0.192196 0 0 0
18 1 0.629317 0.602638 0.0618526 0 0 0
19 1 0.694547 0.84077 0.0514056 0 0 0
20 4 0.428354 0.850668 0.0489563 0 0 0
21 1 0.530051 0.964349 0.253141 0 0 0
22 1 0.467343 0.723153 0.279578 0 0 0
23 2 0.342357 0.903632 0.0950193 0 0 0
24 2 0.409168 0.713909 0.0012265 0 0 0
25 3 0.543751 0.137743 0.468135 0 0 0
26 3 0.413359 0.223677 0.402973 0 0 0
27 1 0.521882 0.00149663 0.535346 0 0 0
28 1 0.602461 0.0943028 0.360599 0 0 0
29 4 0.352067 0.0850068 0.282879 0 0 0
30 1 0.430998 0.366133 0.344519 0 0 0
31 1 0.346212 0.246554 0.506518 0 0 0
32 2 0.269132 0.0303363 0.336338 0 0 0
33 3 0.317127 0.166529 0.116887 0 0 0
34 3 0.196385 0.303012 0.119972 0 0 0
35 1 0.400326 0.246457 0.0650956 0 0 0
36 1 0.297644 0.0426964 0.0334331 0 0 0
37 4 0.0758467 0.19009 0.14252 0 0 0
38 1 0.189649 0.381882 0.0014089 0 0 0
39 1 0.204485 0.411582 0.220053 0 0 0
40 2 0.000978238 0.289408 0.144661 0 0 0
41 2 0.0797089 0.126535 0.258126 0 0 0
42 3 0.639559 0.22744 0.756384 0 0 0
43 3 0.532247 0.316577 0.869387 0 0 0
44 1 0.644304 0.0683532 0.776696 0 0 0
45 1 0.733498 0.285119 0.798172 0 0 0
46 4 0.410301 0.204613 0.86303 0 0 0
47 1 0.512731 0.469336 0.834855 0 0 0
48 1 0.565887 0.314658 0.998771 0 0 0
49 2 0.369797 0.227504 0.748545 0 0 0
50 2 0.434116 0.0585341 0.869884 0 0 0
ITEM: TIMESTEP
114
ITEM: NUMBER OF ATOMS
50
ITEM: BOX BOUNDS ss ss ss
-5.42565 4.84359
-2.95249 3.83201
-3.01889 4.9861
ITEM: ATOMS id type xs ys zs ix iy iz
1 3 0.95327 0.85544 0.328782 0 0 0
2 3 0.805412 0.856845 0.362558 0 0 0
3 1 0.971887 0.866759 0.194876 0 0 0
4 1 0.99723 0.720007 0.375856 0 0 0
5 1 0.999033 0.980502 0.391406 0 0 0
6 4 0.738319 0.690376 0.275937 0 0 0
7 1 0.767113 0.998548 0.320007 0 0 0
8 1 0.788772 0.850084 0.497024 0 0 0
9 3 0.735021 0.490859 0.355711 0 0 0
10 3 0.653784 0.478752 0.518998 0 0 0
11 1 0.698148 0.384572 0.265301 0 0 0
12 1 0.834668 0.445569 0.384013 0 0 0
13 4 0.62587 0.271612 0.57422 0 0 0
14 1 0.562681 0.559059 0.505995 0 0 0
15 1 0.708927 0.555655 0.615733 0 0 0
16 3 0.64737 0.735617 0.135389 0 0 0
17 3 0.515294 0.822255 0.192205 0 0 0
18 1 0.62931 0.602651 0.0618691 0 0 0
19 1 0.694538 0.840797 0.0514289 0 0 0
20 4 0.428357 0.850697 0.0489741 0 0 0
21 1 0.530033 0.964336 0.253174 0 0 0
22 1 0.467323 0.723129 0.27957 0 0 0
23 2 0.34235 0.903658 0.0950278 0 0 0
24 2 0.409167 0.713946 0.00121821 0 0 0
25 3 0.543771 0.137774 0.468152 0 0 0
26 3 0.413348 0.223668 0.402939 0 0 0
27 1 0.521854 0.00147835 0.535359 0 0 0
28 1 0.602461 0.0942723 0.360619 0 0 0
29 4 0.35208 0.0850032 0.282896 0 0 0
30 1 0.431025 0.366132 0.344484 0 0 0
31 1 0.346213 0.246601 0.506486 0 0 0
32 2 0.269138 0.0303244 0.336344 0 0 0
33 3 0.317117 0.166504 0.11688 0 0 0
34 3 0.196386 0.302979 0.119976 0 0 0
35 1 0.400321 0.246429 0.065089 0 0 0
36 1 0.29764 0.0426552 0.0334531 0 0 0
37 4 0.0758474 0.190058 0.142581 0 0 0
38 1 0.189623 0.381813 0.00139371 0 0 0
39 1 0.204494 0.411591 0.22002 0 0 0
40 2 0.0009799 0.289377 0.144716 0 0 0
41 2 0.0797347 0.126548 0.2582 0 0 0
42 3 0.639557 0.22744 0.756362 0 0 0
43 3 0.532235 0.316547 0.8694 0 0 0
44 1 0.644292 0.0683036 0.776682 0 0 0
45 1 0.733488 0.28508 0.798169 0 0 0
46 4 0.410278 0.2046 0.863004 0 0 0
47 1 0.512739 0.469325 0.834867 0 0 0
48 1 0.565878 0.314599 0.998765 0 0 0
49 2 0.369822 0.227441 0.748488 0 0 0
50 2 0.434082 0.0585135 0.869952 0 0 0
