LAMMPS (10 Feb 2015)
units           real
atom_style      full
boundary        s s s
dielectric      72
special_bonds   lj/coul 0.0 0.0 1.0

pair_style      lj/cut/coul/debye 0.142 10
bond_style      harmonic
angle_style     harmonic
dihedral_style  charmm
improper_style  none
kspace_style    none

read_data       data._polymer_2
  orthogonal box = (-50 -50 -50) to (50 50 50)
  1 by 1 by 1 MPI processor grid
  reading atoms ...
  26 atoms
  scanning bonds ...
  4 = max bonds/atom
  scanning angles ...
  6 = max angles/atom
  scanning dihedrals ...
  16 = max dihedrals/atom
  reading bonds ...
  25 bonds
  reading angles ...
  45 angles
  reading dihedrals ...
  57 dihedrals
  4 = max # of 1-2 neighbors
  9 = max # of 1-3 neighbors
  12 = max # of special neighbors

pair_modify     mix geometric
neighbor        2.0 multi
neigh_modify    every 2 delay 4 check yes
thermo_style    multi

variable        input index in._polymer_2
variable        sname index _polymer_2

print                          .
.
print ==========================================
==========================================
print "500 steps CG Minimization"
500 steps CG Minimization
print ==========================================
==========================================
print                          .
.

dump            1 all atom 25 ${sname}.min.lammpstrj
dump            1 all atom 25 _polymer_2.min.lammpstrj
dump_modify     1 image yes scale yes
thermo          10
min_style       sd
minimize        1.0e-4 1.0e-4 500 5000
WARNING: Resetting reneighboring criteria during minimization (../min.cpp:168)
Neighbor list info ...
  1 neighbor list requests
  update every 1 steps, delay 0 steps, check yes
  master list distance cutoff = 12
Memory usage per processor = 1.05648 Mbytes
---------------- Step        0 ----- CPU =      0.0000 (sec) ----------------
TotEng   = 6879776765.5810 KinEng   =         0.0000 Temp     =         0.0000 
PotEng   = 6879776765.5810 E_bond   =       158.9257 E_angle  =       137.2434 
E_dihed  =         3.8048 E_impro  =         0.0000 E_vdwl   = 6879776466.0273 
E_coul   =        -0.4203 E_long   =         0.0000 Press    = 19128734628576.6797 
Volume   =        98.6446 
---------------- Step       10 ----- CPU =      0.0009 (sec) ----------------
TotEng   =     33713.7721 KinEng   =         0.0000 Temp     =         0.0000 
PotEng   =     33713.7721 E_bond   =       365.3088 E_angle  =       207.6198 
E_dihed  =         3.9543 E_impro  =         0.0000 E_vdwl   =     33136.9487 
E_coul   =        -0.0596 E_long   =         0.0000 Press    =  92233043.7280 
Volume   =        98.6446 
---------------- Step       20 ----- CPU =      0.0014 (sec) ----------------
TotEng   =       466.9603 KinEng   =         0.0000 Temp     =         0.0000 
PotEng   =       466.9603 E_bond   =        85.8142 E_angle  =       232.6315 
E_dihed  =         5.4333 E_impro  =         0.0000 E_vdwl   =       143.1492 
E_coul   =        -0.0679 E_long   =         0.0000 Press    =    257337.1160 
Volume   =       108.6639 
---------------- Step       30 ----- CPU =      0.0021 (sec) ----------------
TotEng   =       102.3157 KinEng   =         0.0000 Temp     =         0.0000 
PotEng   =       102.3157 E_bond   =        10.6572 E_angle  =        54.4263 
E_dihed  =         4.8516 E_impro  =         0.0000 E_vdwl   =        32.4458 
E_coul   =        -0.0652 E_long   =         0.0000 Press    =     63364.0563 
Volume   =       108.6639 
---------------- Step       40 ----- CPU =      0.0029 (sec) ----------------
TotEng   =        59.3833 KinEng   =         0.0000 Temp     =         0.0000 
PotEng   =        59.3833 E_bond   =         5.7951 E_angle  =        26.5446 
E_dihed  =         5.0212 E_impro  =         0.0000 E_vdwl   =        22.0855 
E_coul   =        -0.0631 E_long   =         0.0000 Press    =     21456.7269 
Volume   =       126.0558 
---------------- Step       50 ----- CPU =      0.0038 (sec) ----------------
TotEng   =        45.7046 KinEng   =         0.0000 Temp     =         0.0000 
PotEng   =        45.7046 E_bond   =         4.1411 E_angle  =        19.3184 
E_dihed  =         5.1868 E_impro  =         0.0000 E_vdwl   =        17.1225 
E_coul   =        -0.0643 E_long   =         0.0000 Press    =     11620.3418 
Volume   =       126.0558 
---------------- Step       60 ----- CPU =      0.0046 (sec) ----------------
TotEng   =        38.6140 KinEng   =         0.0000 Temp     =         0.0000 
PotEng   =        38.6140 E_bond   =         3.1998 E_angle  =        15.8312 
E_dihed  =         5.3563 E_impro  =         0.0000 E_vdwl   =        14.2915 
E_coul   =        -0.0648 E_long   =         0.0000 Press    =      7466.9874 
Volume   =       126.0558 
---------------- Step       70 ----- CPU =      0.0055 (sec) ----------------
TotEng   =        34.2734 KinEng   =         0.0000 Temp     =         0.0000 
PotEng   =        34.2734 E_bond   =         2.6246 E_angle  =        13.7151 
E_dihed  =         5.5131 E_impro  =         0.0000 E_vdwl   =        12.4853 
E_coul   =        -0.0647 E_long   =         0.0000 Press    =      4993.9988 
Volume   =       126.0558 
---------------- Step       80 ----- CPU =      0.0063 (sec) ----------------
TotEng   =        31.3732 KinEng   =         0.0000 Temp     =         0.0000 
PotEng   =        31.3732 E_bond   =         2.2638 E_angle  =        12.2848 
E_dihed  =         5.6499 E_impro  =         0.0000 E_vdwl   =        11.2391 
E_coul   =        -0.0644 E_long   =         0.0000 Press    =      3264.3208 
Volume   =       126.0558 
---------------- Step       90 ----- CPU =      0.0072 (sec) ----------------
TotEng   =        29.2972 KinEng   =         0.0000 Temp     =         0.0000 
PotEng   =        29.2972 E_bond   =         2.0268 E_angle  =        11.2450 
E_dihed  =         5.7659 E_impro  =         0.0000 E_vdwl   =        10.3235 
E_coul   =        -0.0641 E_long   =         0.0000 Press    =      1980.4584 
Volume   =       126.0558 
---------------- Step      100 ----- CPU =      0.0080 (sec) ----------------
TotEng   =        27.6858 KinEng   =         0.0000 Temp     =         0.0000 
PotEng   =        27.6858 E_bond   =         1.8618 E_angle  =        10.4288 
E_dihed  =         5.8621 E_impro  =         0.0000 E_vdwl   =         9.5968 
E_coul   =        -0.0638 E_long   =         0.0000 Press    =      1009.5465 
Volume   =       126.0558 
---------------- Step      110 ----- CPU =      0.0089 (sec) ----------------
TotEng   =        26.1107 KinEng   =         0.0000 Temp     =         0.0000 
PotEng   =        26.1107 E_bond   =         1.7479 E_angle  =         9.6420 
E_dihed  =         5.9134 E_impro  =         0.0000 E_vdwl   =         8.8711 
E_coul   =        -0.0638 E_long   =         0.0000 Press    =       290.1859 
Volume   =       126.0558 
---------------- Step      120 ----- CPU =      0.0097 (sec) ----------------
TotEng   =        24.7474 KinEng   =         0.0000 Temp     =         0.0000 
PotEng   =        24.7474 E_bond   =         1.5090 E_angle  =         9.2184 
E_dihed  =         5.6114 E_impro  =         0.0000 E_vdwl   =         8.4734 
E_coul   =        -0.0648 E_long   =         0.0000 Press    =       752.7311 
Volume   =       126.0558 
---------------- Step      130 ----- CPU =      0.0105 (sec) ----------------
TotEng   =        24.6981 KinEng   =         0.0000 Temp     =         0.0000 
PotEng   =        24.6981 E_bond   =         1.5098 E_angle  =         9.2154 
E_dihed  =         5.5817 E_impro  =         0.0000 E_vdwl   =         8.4560 
E_coul   =        -0.0648 E_long   =         0.0000 Press    =       678.4565 
Volume   =       126.0558 
---------------- Step      140 ----- CPU =      0.0114 (sec) ----------------
TotEng   =        24.6453 KinEng   =         0.0000 Temp     =         0.0000 
PotEng   =        24.6453 E_bond   =         1.5091 E_angle  =         9.2142 
E_dihed  =         5.5498 E_impro  =         0.0000 E_vdwl   =         8.4370 
E_coul   =        -0.0648 E_long   =         0.0000 Press    =       640.1139 
Volume   =       126.0558 
---------------- Step      150 ----- CPU =      0.0122 (sec) ----------------
TotEng   =        24.5916 KinEng   =         0.0000 Temp     =         0.0000 
PotEng   =        24.5916 E_bond   =         1.5064 E_angle  =         9.2133 
E_dihed  =         5.5183 E_impro  =         0.0000 E_vdwl   =         8.4185 
E_coul   =        -0.0649 E_long   =         0.0000 Press    =       608.1655 
Volume   =       126.0558 
---------------- Step      160 ----- CPU =      0.0131 (sec) ----------------
TotEng   =        24.5445 KinEng   =         0.0000 Temp     =         0.0000 
PotEng   =        24.5445 E_bond   =         1.5026 E_angle  =         9.2125 
E_dihed  =         5.4914 E_impro  =         0.0000 E_vdwl   =         8.4029 
E_coul   =        -0.0649 E_long   =         0.0000 Press    =       584.8699 
Volume   =       126.0558 
---------------- Step      170 ----- CPU =      0.0139 (sec) ----------------
TotEng   =        24.5055 KinEng   =         0.0000 Temp     =         0.0000 
PotEng   =        24.5055 E_bond   =         1.4994 E_angle  =         9.2114 
E_dihed  =         5.4693 E_impro  =         0.0000 E_vdwl   =         8.3903 
E_coul   =        -0.0649 E_long   =         0.0000 Press    =       568.2906 
Volume   =       126.0558 
---------------- Step      180 ----- CPU =      0.0148 (sec) ----------------
TotEng   =        24.4701 KinEng   =         0.0000 Temp     =         0.0000 
PotEng   =        24.4701 E_bond   =         1.4969 E_angle  =         9.2102 
E_dihed  =         5.4492 E_impro  =         0.0000 E_vdwl   =         8.3787 
E_coul   =        -0.0649 E_long   =         0.0000 Press    =       554.6578 
Volume   =       126.0558 
---------------- Step      190 ----- CPU =      0.0156 (sec) ----------------
TotEng   =        24.4322 KinEng   =         0.0000 Temp     =         0.0000 
PotEng   =        24.4322 E_bond   =         1.4947 E_angle  =         9.2087 
E_dihed  =         5.4276 E_impro  =         0.0000 E_vdwl   =         8.3661 
E_coul   =        -0.0650 E_long   =         0.0000 Press    =       540.8037 
Volume   =       126.0558 
---------------- Step      200 ----- CPU =      0.0165 (sec) ----------------
TotEng   =        24.3835 KinEng   =         0.0000 Temp     =         0.0000 
PotEng   =        24.3835 E_bond   =         1.4922 E_angle  =         9.2067 
E_dihed  =         5.4000 E_impro  =         0.0000 E_vdwl   =         8.3496 
E_coul   =        -0.0650 E_long   =         0.0000 Press    =       523.4622 
Volume   =       126.0558 
---------------- Step      210 ----- CPU =      0.0173 (sec) ----------------
TotEng   =        24.3034 KinEng   =         0.0000 Temp     =         0.0000 
PotEng   =        24.3034 E_bond   =         1.4881 E_angle  =         9.2037 
E_dihed  =         5.3550 E_impro  =         0.0000 E_vdwl   =         8.3216 
E_coul   =        -0.0650 E_long   =         0.0000 Press    =       494.7277 
Volume   =       126.0558 
---------------- Step      220 ----- CPU =      0.0181 (sec) ----------------
TotEng   =        24.1713 KinEng   =         0.0000 Temp     =         0.0000 
PotEng   =        24.1713 E_bond   =         1.4808 E_angle  =         9.2004 
E_dihed  =         5.2829 E_impro  =         0.0000 E_vdwl   =         8.2722 
E_coul   =        -0.0650 E_long   =         0.0000 Press    =       445.0224 
Volume   =       126.0558 
---------------- Step      230 ----- CPU =      0.0190 (sec) ----------------
TotEng   =        24.0668 KinEng   =         0.0000 Temp     =         0.0000 
PotEng   =        24.0668 E_bond   =         1.4742 E_angle  =         9.2000 
E_dihed  =         5.2284 E_impro  =         0.0000 E_vdwl   =         8.2292 
E_coul   =        -0.0650 E_long   =         0.0000 Press    =       400.2675 
Volume   =       126.0558 
---------------- Step      240 ----- CPU =      0.0198 (sec) ----------------
TotEng   =        24.0041 KinEng   =         0.0000 Temp     =         0.0000 
PotEng   =        24.0041 E_bond   =         1.4710 E_angle  =         9.2004 
E_dihed  =         5.1969 E_impro  =         0.0000 E_vdwl   =         8.2008 
E_coul   =        -0.0650 E_long   =         0.0000 Press    =       417.6461 
Volume   =       126.0558 
---------------- Step      243 ----- CPU =      0.0202 (sec) ----------------
TotEng   =        23.9956 KinEng   =         0.0000 Temp     =         0.0000 
PotEng   =        23.9956 E_bond   =         1.4739 E_angle  =         9.1976 
E_dihed  =         5.1919 E_impro  =         0.0000 E_vdwl   =         8.1973 
E_coul   =        -0.0650 E_long   =         0.0000 Press    =       427.1440 
Volume   =       126.0558 
Loop time of 0.0201881 on 1 procs for 243 steps with 26 atoms

Minimization stats:
  Stopping criterion = energy tolerance
  Energy initial, next-to-last, final = 
         6879776765.58       23.997798686      23.9956485884
  Force two-norm initial, final = 2.86839e+11 2.81103
  Force max component initial, final = 1.81441e+11 0.96649
  Final line search alpha, max atom move = 0.145589 0.14071
  Iterations, force evaluations = 243 472

Pair  time (%) = 0.0109346 (54.1636)
Bond  time (%) = 0.00768375 (38.0608)
Neigh time (%) = 4.29153e-05 (0.212578)
Comm  time (%) = 6.38962e-05 (0.316504)
Outpt time (%) = 0.000692606 (3.43076)
Other time (%) = 0.00077033 (3.81577)

Nlocal:    26 ave 26 max 26 min
Histogram: 1 0 0 0 0 0 0 0 0 0
Nghost:    0 ave 0 max 0 min
Histogram: 1 0 0 0 0 0 0 0 0 0
Neighs:    255 ave 255 max 255 min
Histogram: 1 0 0 0 0 0 0 0 0 0

Total # of neighbors = 255
Ave neighs/atom = 9.80769
Ave special neighs/atom = 5.38462
Neighbor list builds = 2
Dangerous builds = 0
min_style       cg
minimize        1.0e-4 1.0e-4 500 5000
WARNING: Resetting reneighboring criteria during minimization (../min.cpp:168)
Memory usage per processor = 1.05648 Mbytes
---------------- Step      243 ----- CPU =      0.0000 (sec) ----------------
TotEng   =        23.9956 KinEng   =         0.0000 Temp     =         0.0000 
PotEng   =        23.9956 E_bond   =         1.4739 E_angle  =         9.1976 
E_dihed  =         5.1919 E_impro  =         0.0000 E_vdwl   =         8.1973 
E_coul   =        -0.0650 E_long   =         0.0000 Press    =       435.0263 
Volume   =       123.7718 
---------------- Step      244 ----- CPU =      0.0002 (sec) ----------------
TotEng   =        23.9936 KinEng   =         0.0000 Temp     =         0.0000 
PotEng   =        23.9936 E_bond   =         1.4693 E_angle  =         9.2011 
E_dihed  =         5.1918 E_impro  =         0.0000 E_vdwl   =         8.1964 
E_coul   =        -0.0650 E_long   =         0.0000 Press    =       389.7523 
Volume   =       123.7718 
Loop time of 0.000185013 on 1 procs for 1 steps with 26 atoms

Minimization stats:
  Stopping criterion = energy tolerance
  Energy initial, next-to-last, final = 
         23.9956485884      23.9956485884      23.9935545154
  Force two-norm initial, final = 2.81103 1.55076
  Force max component initial, final = 0.96649 0.599556
  Final line search alpha, max atom move = 0.103467 0.0620344
  Iterations, force evaluations = 1 2

Pair  time (%) = 7.00951e-05 (37.8866)
Bond  time (%) = 5.00679e-05 (27.0619)
Neigh time (%) = 0 (0)
Comm  time (%) = 0 (0)
Outpt time (%) = 0 (0)
Other time (%) = 6.48499e-05 (35.0515)

Nlocal:    26 ave 26 max 26 min
Histogram: 1 0 0 0 0 0 0 0 0 0
Nghost:    0 ave 0 max 0 min
Histogram: 1 0 0 0 0 0 0 0 0 0
Neighs:    255 ave 255 max 255 min
Histogram: 1 0 0 0 0 0 0 0 0 0

Total # of neighbors = 255
Ave neighs/atom = 9.80769
Ave special neighs/atom = 5.38462
Neighbor list builds = 0
Dangerous builds = 0
#now minimize the entire system
minimize        1.0e-4 1.0e-4 500 5000
WARNING: Resetting reneighboring criteria during minimization (../min.cpp:168)
Memory usage per processor = 1.05648 Mbytes
---------------- Step      244 ----- CPU =      0.0000 (sec) ----------------
TotEng   =        23.9936 KinEng   =         0.0000 Temp     =         0.0000 
PotEng   =        23.9936 E_bond   =         1.4693 E_angle  =         9.2011 
E_dihed  =         5.1918 E_impro  =         0.0000 E_vdwl   =         8.1964 
E_coul   =        -0.0650 E_long   =         0.0000 Press    =       389.7620 
Volume   =       123.7687 
---------------- Step      245 ----- CPU =      0.0002 (sec) ----------------
TotEng   =        23.9916 KinEng   =         0.0000 Temp     =         0.0000 
PotEng   =        23.9916 E_bond   =         1.4721 E_angle  =         9.1980 
E_dihed  =         5.1901 E_impro  =         0.0000 E_vdwl   =         8.1964 
E_coul   =        -0.0650 E_long   =         0.0000 Press    =       363.4829 
Volume   =       123.7687 
Loop time of 0.000182867 on 1 procs for 1 steps with 26 atoms

Minimization stats:
  Stopping criterion = energy tolerance
  Energy initial, next-to-last, final = 
         23.9935545154      23.9935545154      23.9915917945
  Force two-norm initial, final = 1.55076 2.67071
  Force max component initial, final = 0.599556 0.960157
  Final line search alpha, max atom move = 0.16679 0.160145
  Iterations, force evaluations = 1 2

Pair  time (%) = 7.03335e-05 (38.4615)
Bond  time (%) = 4.98295e-05 (27.249)
Neigh time (%) = 0 (0)
Comm  time (%) = 9.53674e-07 (0.521512)
Outpt time (%) = 0 (0)
Other time (%) = 6.17504e-05 (33.7679)

Nlocal:    26 ave 26 max 26 min
Histogram: 1 0 0 0 0 0 0 0 0 0
Nghost:    0 ave 0 max 0 min
Histogram: 1 0 0 0 0 0 0 0 0 0
Neighs:    255 ave 255 max 255 min
Histogram: 1 0 0 0 0 0 0 0 0 0

Total # of neighbors = 255
Ave neighs/atom = 9.80769
Ave special neighs/atom = 5.38462
Neighbor list builds = 0
Dangerous builds = 0
undump          1

Please see the log.cite file for references relevant to this simulation

