ITEM: TIMESTEP
0
ITEM: NUMBER OF ATOMS
42
ITEM: BOX BOUNDS ss ss ss
-4.8364 4.76723
-3.1361 3.43537
-2.17947 2.90858
ITEM: ATOMS id type xs ys zs ix iy iz
1 3 0.945652 0.835869 0.507652 0 0 0
2 3 0.790323 0.832721 0.584477 0 0 0
3 1 0.956784 0.861532 0.296754 0 0 0
4 1 0.99501 0.69157 0.558518 0 0 0
5 1 0.998959 0.95809 0.612514 0 0 0
6 4 0.714132 0.668821 0.441945 0 0 0
7 1 0.745291 0.98147 0.540372 0 0 0
8 1 0.781814 0.81037 0.796678 0 0 0
9 3 0.703368 0.461944 0.561771 0 0 0
10 3 0.592247 0.449676 0.782838 0 0 0
11 1 0.680351 0.351434 0.40816 0 0 0
12 1 0.804319 0.418124 0.643203 0 0 0
13 4 0.539112 0.242332 0.839316 0 0 0
14 1 0.504656 0.549283 0.74046 0 0 0
15 1 0.639013 0.506136 0.964305 0 0 0
16 2 0.474515 0.256548 0.998035 0 0 0
17 3 0.633474 0.719107 0.199155 0 0 0
18 3 0.497516 0.839036 0.252281 0 0 0
19 1 0.607819 0.579295 0.0934366 0 0 0
20 1 0.699465 0.80879 0.0680143 0 0 0
21 4 0.40339 0.829053 0.0256405 0 0 0
22 1 0.521328 0.998478 0.292029 0 0 0
23 1 0.442416 0.777007 0.421024 0 0 0
24 2 0.314156 0.903603 0.0779749 0 0 0
25 2 0.377042 0.679341 0.00196539 0 0 0
26 3 0.457599 0.134729 0.633392 0 0 0
27 3 0.33892 0.259472 0.504875 0 0 0
28 1 0.412028 0.00152173 0.72856 0 0 0
29 1 0.527789 0.0787282 0.48095 0 0 0
30 4 0.247465 0.128964 0.347306 0 0 0
31 1 0.382767 0.374913 0.374812 0 0 0
32 1 0.276597 0.334458 0.655892 0 0 0
33 2 0.19668 0.0348004 0.475329 0 0 0
34 3 0.386535 0.225289 0.234367 0 0 0
35 3 0.248155 0.316011 0.325972 0 0 0
36 1 0.392774 0.226936 0.0194416 0 0 0
37 1 0.400905 0.0683104 0.301286 0 0 0
38 4 0.126214 0.222017 0.203221 0 0 0
39 1 0.246316 0.477901 0.273413 0 0 0
40 1 0.241834 0.309282 0.543731 0 0 0
41 2 0.00104127 0.341262 0.251926 0 0 0
42 2 0.106002 0.0113567 0.283885 0 0 0
ITEM: TIMESTEP
25
ITEM: NUMBER OF ATOMS
42
ITEM: BOX BOUNDS ss ss ss
-4.79811 4.76733
-3.21541 3.43583
-2.26053 2.9479
ITEM: ATOMS id type xs ys zs ix iy iz
1 3 0.945916 0.838492 0.511143 0 0 0
2 3 0.790175 0.836724 0.586655 0 0 0
3 1 0.956847 0.863442 0.305059 0 0 0
4 1 0.995101 0.695621 0.560977 0 0 0
5 1 0.99957 0.958954 0.613551 0 0 0
6 4 0.713946 0.674334 0.449961 0 0 0
7 1 0.744509 0.983136 0.542776 0 0 0
8 1 0.78195 0.815481 0.793996 0 0 0
9 3 0.707509 0.471369 0.572634 0 0 0
10 3 0.610043 0.46435 0.811947 0 0 0
11 1 0.677289 0.362731 0.425881 0 0 0
12 1 0.811194 0.426312 0.637113 0 0 0
13 4 0.566178 0.257831 0.893765 0 0 0
14 1 0.519983 0.563077 0.781304 0 0 0
15 1 0.661562 0.527335 0.978092 0 0 0
16 2 0.4863 0.279658 1.0214 0 0 0
17 3 0.632374 0.721726 0.211922 0 0 0
18 3 0.495703 0.840345 0.262982 0 0 0
19 1 0.606588 0.58336 0.10918 0 0 0
20 1 0.698114 0.810332 0.0825602 0 0 0
21 4 0.401769 0.832158 0.0404939 0 0 0
22 1 0.519591 0.997856 0.302344 0 0 0
23 1 0.440347 0.778136 0.427563 0 0 0
24 2 0.312057 0.905829 0.0911396 0 0 0
25 2 0.375221 0.684563 0.0153166 0 0 0
26 3 0.497347 0.130626 0.704036 0 0 0
27 3 0.379005 0.257006 0.600568 0 0 0
28 1 0.451734 -0.00272397 0.796042 0 0 0
29 1 0.565886 0.080612 0.54733 0 0 0
30 4 0.324008 0.113245 0.424108 0 0 0
31 1 0.415154 0.390991 0.497942 0 0 0
32 1 0.304739 0.302448 0.750839 0 0 0
33 2 0.224443 0.0737696 0.480614 0 0 0
34 3 0.309551 0.190834 0.167505 0 0 0
35 3 0.182164 0.332975 0.217725 0 0 0
36 1 0.396286 0.252958 0.0498941 0 0 0
37 1 0.311142 0.0299366 0.121592 0 0 0
38 4 0.0565187 0.231486 0.139829 0 0 0
39 1 0.199431 0.487955 0.153484 0 0 0
40 1 0.152507 0.360133 0.42055 0 0 0
41 2 -0.019117 0.306718 0.238072 0 0 0
42 2 0.0682595 0.0977489 0.236638 0 0 0
ITEM: TIMESTEP
50
ITEM: NUMBER OF ATOMS
42
ITEM: BOX BOUNDS ss ss ss
-5.0382 4.77775
-3.23637 3.42856
-2.19384 3.11459
ITEM: ATOMS id type xs ys zs ix iy iz
1 3 0.94804 0.843077 0.487646 0 0 0
2 3 0.796594 0.844815 0.563402 0 0 0
3 1 0.958141 0.866544 0.285045 0 0 0
4 1 0.995079 0.700151 0.537404 0 0 0
5 1 1.00165 0.963012 0.586427 0 0 0
6 4 0.720474 0.680157 0.436661 0 0 0
7 1 0.75255 0.990128 0.516412 0 0 0
8 1 0.789417 0.828106 0.767748 0 0 0
9 3 0.718809 0.478213 0.555027 0 0 0
10 3 0.62983 0.471096 0.798587 0 0 0
11 1 0.683182 0.36971 0.416597 0 0 0
12 1 0.822219 0.432332 0.604606 0 0 0
13 4 0.588547 0.268586 0.885458 0 0 0
14 1 0.539455 0.564699 0.77401 0 0 0
15 1 0.686949 0.537626 0.953332 0 0 0
16 2 0.518012 0.292091 1.0244 0 0 0
17 3 0.641589 0.722926 0.200188 0 0 0
18 3 0.508033 0.83934 0.249229 0 0 0
19 1 0.617189 0.582752 0.103087 0 0 0
20 1 0.705359 0.809847 0.0717975 0 0 0
21 4 0.418025 0.834207 0.0282388 0 0 0
22 1 0.530694 0.996203 0.291492 0 0 0
23 1 0.453223 0.77471 0.408321 0 0 0
24 2 0.330709 0.90846 0.0765357 0 0 0
25 2 0.391553 0.68754 0.000227831 0 0 0
26 3 0.519306 0.135292 0.703104 0 0 0
27 3 0.39664 0.23834 0.580319 0 0 0
28 1 0.483229 0.00270956 0.803313 0 0 0
29 1 0.590506 0.083775 0.55877 0 0 0
30 4 0.337506 0.0960139 0.397924 0 0 0
31 1 0.428927 0.376907 0.487547 0 0 0
32 1 0.321425 0.278259 0.72365 0 0 0
33 2 0.24573 0.0527223 0.470913 0 0 0
34 3 0.3097 0.187205 0.150516 0 0 0
35 3 0.189103 0.336267 0.175794 0 0 0
36 1 0.401035 0.261758 0.0776019 0 0 0
37 1 0.285883 0.0654155 0.0202347 0 0 0
38 4 0.0629476 0.233836 0.108398 0 0 0
39 1 0.204966 0.468553 0.0587503 0 0 0
40 1 0.176255 0.388195 0.369654 0 0 0
41 2 -0.0133032 0.310923 0.196003 0 0 0
42 2 0.0681869 0.096716 0.194527 0 0 0
ITEM: TIMESTEP
75
ITEM: NUMBER OF ATOMS
42
ITEM: BOX BOUNDS ss ss ss
-5.0382 4.77775
-3.23637 3.42856
-2.19384 3.11459
ITEM: ATOMS id type xs ys zs ix iy iz
1 3 0.949031 0.844724 0.486607 0 0 0
2 3 0.79764 0.8469 0.563373 0 0 0
3 1 0.958883 0.867201 0.283894 0 0 0
4 1 0.995864 0.701726 0.537183 0 0 0
5 1 1.00308 0.96474 0.584271 0 0 0
6 4 0.720589 0.682628 0.438285 0 0 0
7 1 0.75391 0.992603 0.514234 0 0 0
8 1 0.790654 0.832539 0.767639 0 0 0
9 3 0.719886 0.478829 0.557507 0 0 0
10 3 0.632018 0.472189 0.800327 0 0 0
11 1 0.683482 0.370797 0.419366 0 0 0
12 1 0.823761 0.434077 0.603974 0 0 0
13 4 0.590891 0.268743 0.88817 0 0 0
14 1 0.541075 0.564577 0.777482 0 0 0
15 1 0.68978 0.538732 0.954626 0 0 0
16 2 0.523488 0.291954 1.03209 0 0 0
17 3 0.642307 0.722668 0.202674 0 0 0
18 3 0.507906 0.838658 0.250894 0 0 0
19 1 0.618004 0.582459 0.10587 0 0 0
20 1 0.705604 0.810036 0.0731824 0 0 0
21 4 0.41913 0.834531 0.0288643 0 0 0
22 1 0.53029 0.994951 0.295725 0 0 0
23 1 0.452903 0.772068 0.408578 0 0 0
24 2 0.331682 0.909021 0.0763176 0 0 0
25 2 0.392408 0.688099 -0.000541237 0 0 0
26 3 0.520397 0.134578 0.708233 0 0 0
27 3 0.396201 0.233543 0.581731 0 0 0
28 1 0.485613 0.00260314 0.811816 0 0 0
29 1 0.591811 0.0817492 0.565172 0 0 0
30 4 0.337114 0.094157 0.394769 0 0 0
31 1 0.427927 0.37328 0.491677 0 0 0
32 1 0.320025 0.270852 0.724247 0 0 0
33 2 0.246611 0.0448254 0.467511 0 0 0
34 3 0.307005 0.187588 0.148197 0 0 0
35 3 0.185867 0.335994 0.16871 0 0 0
36 1 0.397845 0.263982 0.0766896 0 0 0
37 1 0.283753 0.0674894 0.0151255 0 0 0
38 4 0.0583889 0.233541 0.106843 0 0 0
39 1 0.200463 0.463015 0.0419965 0 0 0
40 1 0.176016 0.395479 0.359587 0 0 0
41 2 -0.0178311 0.313647 0.190587 0 0 0
42 2 0.0618946 0.097441 0.195414 0 0 0
ITEM: TIMESTEP
100
ITEM: NUMBER OF ATOMS
42
ITEM: BOX BOUNDS ss ss ss
-5.0382 4.77775
-3.23637 3.42856
-2.19384 3.11459
ITEM: ATOMS id type xs ys zs ix iy iz
1 3 0.951764 0.847961 0.483024 0 0 0
2 3 0.800722 0.851421 0.562582 0 0 0
3 1 0.960434 0.86716 0.279654 0 0 0
4 1 0.99892 0.70615 0.536472 0 0 0
5 1 1.00628 0.969763 0.576144 0 0 0
6 4 0.721886 0.685242 0.44387 0 0 0
7 1 0.757216 0.996582 0.51082 0 0 0
8 1 0.794568 0.84007 0.767691 0 0 0
9 3 0.722422 0.481968 0.561588 0 0 0
10 3 0.634051 0.472348 0.804453 0 0 0
11 1 0.686266 0.372506 0.424916 0 0 0
12 1 0.826679 0.438418 0.608241 0 0 0
13 4 0.594023 0.268273 0.889071 0 0 0
14 1 0.542786 0.564018 0.782031 0 0 0
15 1 0.692072 0.539028 0.958531 0 0 0
16 2 0.532165 0.287769 1.04217 0 0 0
17 3 0.643385 0.723841 0.207013 0 0 0
18 3 0.507966 0.835443 0.256478 0 0 0
19 1 0.621016 0.582744 0.110687 0 0 0
20 1 0.705798 0.81271 0.0782199 0 0 0
21 4 0.421917 0.836594 0.030448 0 0 0
22 1 0.52833 0.990695 0.309988 0 0 0
23 1 0.451619 0.762977 0.40832 0 0 0
24 2 0.334154 0.910604 0.0763961 0 0 0
25 2 0.395387 0.690909 -0.00474072 0 0 0
26 3 0.519677 0.13425 0.712237 0 0 0
27 3 0.393877 0.229512 0.583533 0 0 0
28 1 0.486154 0.0037135 0.819876 0 0 0
29 1 0.590543 0.0794999 0.569493 0 0 0
30 4 0.33719 0.0931152 0.388752 0 0 0
31 1 0.423474 0.372001 0.498629 0 0 0
32 1 0.315685 0.260216 0.724784 0 0 0
33 2 0.249846 0.031206 0.459529 0 0 0
34 3 0.303713 0.187997 0.143342 0 0 0
35 3 0.180417 0.333057 0.155567 0 0 0
36 1 0.393424 0.268023 0.0734808 0 0 0
37 1 0.282767 0.0680407 0.00842582 0 0 0
38 4 0.051956 0.227061 0.11067 0 0 0
39 1 0.191024 0.448935 0.0121624 0 0 0
40 1 0.174907 0.406682 0.338438 0 0 0
41 2 -0.0245528 0.318391 0.173303 0 0 0
42 2 0.0514398 0.102322 0.222609 0 0 0
ITEM: TIMESTEP
125
ITEM: NUMBER OF ATOMS
42
ITEM: BOX BOUNDS ss ss ss
-5.0382 4.77775
-3.23637 3.42856
-2.19384 3.11459
ITEM: ATOMS id type xs ys zs ix iy iz
1 3 0.952026 0.848299 0.48244 0 0 0
2 3 0.801087 0.85164 0.56287 0 0 0
3 1 0.960507 0.866873 0.278823 0 0 0
4 1 0.999478 0.706617 0.53633 0 0 0
5 1 1.00672 0.970488 0.5747 0 0 0
6 4 0.722108 0.685803 0.444266 0 0 0
7 1 0.757625 0.996854 0.511011 0 0 0
8 1 0.795319 0.840497 0.767748 0 0 0
9 3 0.722709 0.48208 0.562516 0 0 0
10 3 0.634079 0.472531 0.804477 0 0 0
11 1 0.686883 0.37268 0.425435 0 0 0
12 1 0.826967 0.439013 0.609408 0 0 0
13 4 0.593965 0.268019 0.888814 0 0 0
14 1 0.54274 0.563957 0.782027 0 0 0
15 1 0.691834 0.538997 0.959087 0 0 0
16 2 0.532476 0.287285 1.0424 0 0 0
17 3 0.643696 0.723873 0.207927 0 0 0
18 3 0.507863 0.834947 0.257313 0 0 0
19 1 0.621535 0.58292 0.111069 0 0 0
20 1 0.705806 0.813376 0.0790488 0 0 0
21 4 0.422362 0.837094 0.0307733 0 0 0
22 1 0.527964 0.989851 0.312511 0 0 0
23 1 0.451392 0.761298 0.408135 0 0 0
24 2 0.334442 0.910808 0.0766788 0 0 0
25 2 0.395943 0.691567 -0.00580232 0 0 0
26 3 0.519459 0.134482 0.711891 0 0 0
27 3 0.393435 0.229539 0.583311 0 0 0
28 1 0.486007 0.00377281 0.819476 0 0 0
29 1 0.590211 0.0797747 0.568925 0 0 0
30 4 0.337098 0.0932798 0.3883 0 0 0
31 1 0.422859 0.372247 0.498934 0 0 0
32 1 0.315198 0.259636 0.724603 0 0 0
33 2 0.249986 0.0304665 0.458646 0 0 0
34 3 0.303694 0.187829 0.142697 0 0 0
35 3 0.179982 0.332221 0.154166 0 0 0
36 1 0.393134 0.268536 0.0731947 0 0 0
37 1 0.283025 0.0680104 0.00772427 0 0 0
38 4 0.0514426 0.225119 0.112418 0 0 0
39 1 0.189761 0.44696 0.0085029 0 0 0
40 1 0.174953 0.40802 0.336169 0 0 0
41 2 -0.025108 0.31836 0.170339 0 0 0
42 2 0.0507014 0.103595 0.229593 0 0 0
ITEM: TIMESTEP
150
ITEM: NUMBER OF ATOMS
42
ITEM: BOX BOUNDS ss ss ss
-5.0382 4.77775
-3.23637 3.42856
-2.19384 3.11459
ITEM: ATOMS id type xs ys zs ix iy iz
1 3 0.952961 0.849025 0.480693 0 0 0
2 3 0.802378 0.85235 0.563475 0 0 0
3 1 0.96049 0.866012 0.276707 0 0 0
4 1 1.00096 0.708011 0.535611 0 0 0
5 1 1.00784 0.972227 0.570472 0 0 0
6 4 0.722863 0.686398 0.446189 0 0 0
7 1 0.758666 0.99748 0.512258 0 0 0
8 1 0.79752 0.841117 0.7685 0 0 0
9 3 0.72352 0.482935 0.564306 0 0 0
10 3 0.633731 0.472631 0.804987 0 0 0
11 1 0.688664 0.373123 0.426855 0 0 0
12 1 0.827696 0.440516 0.613064 0 0 0
13 4 0.593607 0.267927 0.88791 0 0 0
14 1 0.542424 0.563926 0.781415 0 0 0
15 1 0.690799 0.539078 0.960492 0 0 0
16 2 0.532537 0.286287 1.04227 0 0 0
17 3 0.644258 0.724451 0.209793 0 0 0
18 3 0.507787 0.833284 0.259911 0 0 0
19 1 0.623107 0.583514 0.112107 0 0 0
20 1 0.705821 0.815344 0.0816733 0 0 0
21 4 0.423571 0.838753 0.0317346 0 0 0
22 1 0.52688 0.987337 0.319957 0 0 0
23 1 0.450747 0.756431 0.40741 0 0 0
24 2 0.335233 0.911282 0.0777468 0 0 0
25 2 0.397738 0.693724 -0.00913679 0 0 0
26 3 0.518796 0.13498 0.710459 0 0 0
27 3 0.392415 0.229715 0.582624 0 0 0
28 1 0.485696 0.0038529 0.817553 0 0 0
29 1 0.589441 0.0809118 0.566942 0 0 0
30 4 0.336716 0.0935427 0.386753 0 0 0
31 1 0.421275 0.372972 0.499146 0 0 0
32 1 0.313976 0.258463 0.723986 0 0 0
33 2 0.249928 0.0293185 0.456407 0 0 0
34 3 0.303465 0.187742 0.140906 0 0 0
35 3 0.178753 0.330218 0.150314 0 0 0
36 1 0.392527 0.26988 0.0724236 0 0 0
37 1 0.283972 0.0677122 0.0056194 0 0 0
38 4 0.050627 0.219813 0.118937 0 0 0
39 1 0.185995 0.440156 -0.00156924 0 0 0
40 1 0.175378 0.411743 0.328508 0 0 0
41 2 -0.0264546 0.316907 0.162843 0 0 0
42 2 0.0490704 0.108126 0.250651 0 0 0
ITEM: TIMESTEP
175
ITEM: NUMBER OF ATOMS
42
ITEM: BOX BOUNDS ss ss ss
-5.0382 4.77775
-3.23637 3.42856
-2.19384 3.11459
ITEM: ATOMS id type xs ys zs ix iy iz
1 3 0.954034 0.849767 0.478543 0 0 0
2 3 0.803967 0.852785 0.564665 0 0 0
3 1 0.96025 0.865177 0.274223 0 0 0
4 1 1.00271 0.709405 0.534148 0 0 0
5 1 1.00917 0.973948 0.56557 0 0 0
6 4 0.723769 0.687278 0.448232 0 0 0
7 1 0.759849 0.998042 0.514711 0 0 0
8 1 0.800381 0.841155 0.769693 0 0 0
9 3 0.724321 0.483624 0.566754 0 0 0
10 3 0.633034 0.473027 0.805115 0 0 0
11 1 0.690766 0.373695 0.428391 0 0 0
12 1 0.828327 0.442135 0.617781 0 0 0
13 4 0.592651 0.267903 0.886775 0 0 0
14 1 0.541744 0.563997 0.780003 0 0 0
15 1 0.68903 0.539394 0.962036 0 0 0
16 2 0.53153 0.285685 1.04111 0 0 0
17 3 0.645083 0.72514 0.21229 0 0 0
18 3 0.507675 0.831422 0.263035 0 0 0
19 1 0.625086 0.584507 0.113138 0 0 0
20 1 0.705903 0.818006 0.0850323 0 0 0
21 4 0.425115 0.841154 0.0331463 0 0 0
22 1 0.525592 0.98414 0.329224 0 0 0
23 1 0.450041 0.75054 0.406248 0 0 0
24 2 0.336088 0.911724 0.0795142 0 0 0
25 2 0.400289 0.696862 -0.0135875 0 0 0
26 3 0.518084 0.135691 0.708285 0 0 0
27 3 0.391238 0.229991 0.581247 0 0 0
28 1 0.485398 0.00378284 0.814385 0 0 0
29 1 0.588725 0.0826837 0.564157 0 0 0
30 4 0.33607 0.0938024 0.38499 0 0 0
31 1 0.419578 0.373715 0.498485 0 0 0
32 1 0.312745 0.257611 0.722867 0 0 0
33 2 0.24933 0.0289702 0.453966 0 0 0
34 3 0.303247 0.187407 0.138581 0 0 0
35 3 0.177439 0.327603 0.145543 0 0 0
36 1 0.391901 0.2711 0.0712637 0 0 0
37 1 0.285124 0.0670359 0.00314641 0 0 0
38 4 0.0499838 0.213514 0.129052 0 0 0
39 1 0.181209 0.430577 -0.0142633 0 0 0
40 1 0.176362 0.41683 0.317923 0 0 0
41 2 -0.0277892 0.313142 0.156812 0 0 0
42 2 0.0483121 0.115249 0.276663 0 0 0
ITEM: TIMESTEP
189
ITEM: NUMBER OF ATOMS
42
ITEM: BOX BOUNDS ss ss ss
-5.32733 4.90363
-3.21944 3.42781
-2.36936 3.32369
ITEM: ATOMS id type xs ys zs ix iy iz
1 3 0.944671 0.850108 0.474966 0 0 0
2 3 0.801339 0.852842 0.558914 0 0 0
3 1 0.949127 0.864857 0.284214 0 0 0
4 1 0.992034 0.709783 0.52632 0 0 0
5 1 0.997988 0.975204 0.554034 0 0 0
6 4 0.723679 0.687175 0.451216 0 0 0
7 1 0.758556 0.998526 0.514417 0 0 0
8 1 0.799394 0.840063 0.750162 0 0 0
9 3 0.723798 0.483387 0.561424 0 0 0
10 3 0.634377 0.472156 0.781651 0 0 0
11 1 0.692918 0.372857 0.431694 0 0 0
12 1 0.82328 0.442192 0.611894 0 0 0
13 4 0.595403 0.266517 0.856452 0 0 0
14 1 0.546924 0.563222 0.756024 0 0 0
15 1 0.686913 0.538956 0.929189 0 0 0
16 2 0.536157 0.283851 0.999699 0 0 0
17 3 0.648044 0.725792 0.231116 0 0 0
18 3 0.515459 0.829377 0.279288 0 0 0
19 1 0.630158 0.585078 0.137178 0 0 0
20 1 0.705778 0.820901 0.113846 0 0 0
21 4 0.43784 0.844153 0.0633295 0 0 0
22 1 0.531346 0.98091 0.347236 0 0 0
23 1 0.459465 0.744081 0.408141 0 0 0
24 2 0.351567 0.912055 0.107161 0 0 0
25 2 0.415526 0.700465 0.0132725 0 0 0
26 3 0.524408 0.134305 0.68863 0 0 0
27 3 0.40246 0.228468 0.570747 0 0 0
28 1 0.493509 0.00123448 0.786431 0 0 0
29 1 0.592452 0.0825321 0.55395 0 0 0
30 4 0.349838 0.0914998 0.387847 0 0 0
31 1 0.429249 0.372724 0.493641 0 0 0
32 1 0.327123 0.25554 0.702926 0 0 0
33 2 0.266503 0.0266459 0.45185 0 0 0
34 3 0.318933 0.184217 0.157326 0 0 0
35 3 0.197308 0.322729 0.161301 0 0 0
36 1 0.403605 0.269318 0.0951162 0 0 0
37 1 0.302596 0.0628956 0.031433 0 0 0
38 4 0.0759115 0.205437 0.164024 0 0 0
39 1 0.196837 0.416684 0.00409606 0 0 0
40 1 0.199182 0.421503 0.314355 0 0 0
41 2 0.000557105 0.305845 0.177088 0 0 0
42 2 0.0756938 0.121764 0.31446 0 0 0
ITEM: TIMESTEP
190
ITEM: NUMBER OF ATOMS
42
ITEM: BOX BOUNDS ss ss ss
-5.33163 4.89304
-3.22124 3.42801
-2.35604 3.33198
ITEM: ATOMS id type xs ys zs ix iy iz
1 3 0.945682 0.850136 0.473029 0 0 0
2 3 0.802259 0.852817 0.557101 0 0 0
3 1 0.950128 0.864871 0.282116 0 0 0
4 1 0.993072 0.709839 0.524429 0 0 0
5 1 0.999029 0.975182 0.552166 0 0 0
6 4 0.724539 0.687328 0.44921 0 0 0
7 1 0.759445 0.998511 0.512546 0 0 0
8 1 0.800324 0.84008 0.748485 0 0 0
9 3 0.724655 0.483438 0.559673 0 0 0
10 3 0.6352 0.472337 0.779938 0 0 0
11 1 0.693773 0.373028 0.429735 0 0 0
12 1 0.824203 0.442342 0.610111 0 0 0
13 4 0.596165 0.266665 0.854868 0 0 0
14 1 0.547673 0.563319 0.754347 0 0 0
15 1 0.687741 0.539066 0.927681 0 0 0
16 2 0.536899 0.284039 0.998228 0 0 0
17 3 0.648891 0.725809 0.229049 0 0 0
18 3 0.516178 0.829414 0.277188 0 0 0
19 1 0.630975 0.585187 0.134955 0 0 0
20 1 0.706639 0.820953 0.111611 0 0 0
21 4 0.438547 0.84419 0.0610627 0 0 0
22 1 0.532091 0.980873 0.345247 0 0 0
23 1 0.460166 0.744097 0.406158 0 0 0
24 2 0.352206 0.912056 0.104928 0 0 0
25 2 0.416218 0.700546 0.0109163 0 0 0
26 3 0.525162 0.134558 0.686899 0 0 0
27 3 0.403113 0.228666 0.568885 0 0 0
28 1 0.494227 0.00149945 0.78477 0 0 0
29 1 0.593231 0.0827856 0.552085 0 0 0
30 4 0.350478 0.0917374 0.385855 0 0 0
31 1 0.429929 0.372886 0.491721 0 0 0
32 1 0.327739 0.255735 0.701192 0 0 0
33 2 0.267082 0.0269045 0.449897 0 0 0
34 3 0.319534 0.184433 0.155103 0 0 0
35 3 0.197845 0.32286 0.159091 0 0 0
36 1 0.404276 0.269501 0.0928388 0 0 0
37 1 0.303205 0.0631238 0.0291068 0 0 0
38 4 0.0763629 0.205623 0.161869 0 0 0
39 1 0.197354 0.416781 0.001657 0 0 0
40 1 0.199736 0.421686 0.312246 0 0 0
41 2 0.000976784 0.306003 0.174924 0 0 0
42 2 0.0761806 0.122026 0.312545 0 0 0
ITEM: TIMESTEP
191
ITEM: NUMBER OF ATOMS
42
ITEM: BOX BOUNDS ss ss ss
-5.33164 4.89312
-3.22127 3.42811
-2.35662 3.3319
ITEM: ATOMS id type xs ys zs ix iy iz
1 3 0.945677 0.850116 0.473086 0 0 0
2 3 0.802264 0.852845 0.557139 0 0 0
3 1 0.950119 0.864863 0.28218 0 0 0
4 1 0.993073 0.709835 0.524467 0 0 0
5 1 0.999031 0.975173 0.552206 0 0 0
6 4 0.724548 0.68724 0.449358 0 0 0
7 1 0.759451 0.998486 0.512628 0 0 0
8 1 0.800333 0.840057 0.74854 0 0 0
9 3 0.724662 0.483513 0.559656 0 0 0
10 3 0.63517 0.472286 0.780031 0 0 0
11 1 0.693774 0.37302 0.429809 0 0 0
12 1 0.824201 0.442336 0.61019 0 0 0
13 4 0.596169 0.266711 0.854883 0 0 0
14 1 0.547663 0.56332 0.754363 0 0 0
15 1 0.687725 0.539067 0.927702 0 0 0
16 2 0.536881 0.284037 0.998236 0 0 0
17 3 0.648869 0.725849 0.229084 0 0 0
18 3 0.516194 0.829378 0.277297 0 0 0
19 1 0.630983 0.585182 0.135052 0 0 0
20 1 0.706634 0.820949 0.111732 0 0 0
21 4 0.438546 0.844198 0.0611507 0 0 0
22 1 0.532083 0.980851 0.345361 0 0 0
23 1 0.46016 0.744065 0.406213 0 0 0
24 2 0.352211 0.912046 0.10503 0 0 0
25 2 0.416234 0.700561 0.0109948 0 0 0
26 3 0.525138 0.134546 0.686915 0 0 0
27 3 0.403116 0.228674 0.568939 0 0 0
28 1 0.494223 0.00151016 0.784783 0 0 0
29 1 0.593226 0.0827991 0.552126 0 0 0
30 4 0.350469 0.0917325 0.385898 0 0 0
31 1 0.429919 0.372883 0.491762 0 0 0
32 1 0.327731 0.255735 0.701218 0 0 0
33 2 0.267079 0.0269066 0.449951 0 0 0
34 3 0.319541 0.184411 0.155185 0 0 0
35 3 0.197827 0.322865 0.159138 0 0 0
36 1 0.404269 0.269493 0.0929149 0 0 0
37 1 0.303204 0.0631105 0.0291964 0 0 0
38 4 0.0763592 0.205581 0.162027 0 0 0
39 1 0.197332 0.416712 0.00169279 0 0 0
40 1 0.199746 0.421707 0.312266 0 0 0
41 2 0.000972415 0.305988 0.175031 0 0 0
42 2 0.0761965 0.122067 0.312732 0 0 0
