ITEM: TIMESTEP
0
ITEM: NUMBER OF ATOMS
66
ITEM: BOX BOUNDS ss ss ss
-6.64939 6.0553
-3.07916 4.06944
-3.36444 5.4392
ITEM: ATOMS id type xs ys zs ix iy iz
23 2 0.463628 0.908512 0.170879 0 0 0
29 4 0.471897 0.115954 0.370899 0 0 0
31 1 0.480279 0.293967 0.558552 0 0 0
32 2 0.394016 0.125001 0.398938 0 0 0
33 3 0.478835 0.133682 0.203322 0 0 0
34 3 0.410136 0.292719 0.136593 0 0 0
36 1 0.451838 0.00139888 0.155165 0 0 0
37 4 0.300123 0.278483 0.190728 0 0 0
38 1 0.412408 0.2831 0.0127061 0 0 0
39 1 0.44261 0.42821 0.169573 0 0 0
49 3 0.226205 0.410562 0.117191 0 0 0
50 3 0.121682 0.421392 0.20611 0 0 0
51 1 0.21054 0.363929 0.00113589 0 0 0
52 1 0.260153 0.551058 0.112668 0 0 0
53 4 0.0693374 0.238885 0.215532 0 0 0
54 1 0.0686298 0.519773 0.150023 0 0 0
55 1 0.136764 0.471685 0.321192 0 0 0
56 2 0.048767 0.201729 0.107431 0 0 0
57 2 0.000787111 0.258995 0.274156 0 0 0
58 3 0.399623 0.277067 0.306984 0 0 0
59 3 0.297397 0.388798 0.297708 0 0 0
60 1 0.404691 0.174742 0.214265 0 0 0
61 1 0.468303 0.369232 0.298406 0 0 0
62 4 0.206294 0.264848 0.317617 0 0 0
63 1 0.296288 0.46924 0.190411 0 0 0
64 1 0.295433 0.491993 0.389978 0 0 0
65 2 0.202557 0.17342 0.228814 0 0 0
66 2 0.138544 0.34096 0.313085 0 0 0
1 3 0.959163 0.857337 0.373547 0 0 0
2 3 0.841 0.863208 0.413401 0 0 0
3 1 0.969771 0.862755 0.250588 0 0 0
4 1 0.995113 0.729494 0.417005 0 0 0
5 1 0.999213 0.977065 0.424405 0 0 0
6 4 0.782241 0.707357 0.338877 0 0 0
7 1 0.809798 0.998601 0.377328 0 0 0
8 1 0.832018 0.8568 0.536528 0 0 0
9 3 0.781263 0.516852 0.408784 0 0 0
10 3 0.719965 0.504429 0.561082 0 0 0
11 1 0.748111 0.417837 0.327724 0 0 0
12 1 0.862286 0.472195 0.428886 0 0 0
13 4 0.701934 0.307512 0.61369 0 0 0
14 1 0.644839 0.577112 0.552003 0 0 0
15 1 0.765858 0.580227 0.64601 0 0 0
16 3 0.710383 0.750982 0.209333 0 0 0
17 3 0.601808 0.824637 0.261073 0 0 0
18 1 0.698915 0.626577 0.139077 0 0 0
19 1 0.747559 0.855881 0.136621 0 0 0
20 4 0.534839 0.865635 0.129533 0 0 0
21 1 0.611285 0.952591 0.327258 0 0 0
22 1 0.562071 0.720645 0.330997 0 0 0
24 2 0.522125 0.741733 0.0744931 0 0 0
25 3 0.635701 0.177341 0.519976 0 0 0
26 3 0.529549 0.257073 0.461927 0 0 0
27 1 0.618901 0.0494321 0.583532 0 0 0
28 1 0.682484 0.134226 0.422079 0 0 0
30 1 0.542686 0.384107 0.3964 0 0 0
35 1 0.560725 0.15303 0.168469 0 0 0
40 3 0.712434 0.270124 0.780368 0 0 0
41 3 0.624364 0.35349 0.881575 0 0 0
42 1 0.718128 0.119762 0.801233 0 0 0
43 1 0.787533 0.328687 0.818005 0 0 0
44 4 0.528177 0.240172 0.881126 0 0 0
45 1 0.605185 0.495494 0.845601 0 0 0
46 1 0.652147 0.359666 0.998864 0 0 0
47 2 0.50051 0.237108 0.772636 0 0 0
48 2 0.549402 0.106414 0.908344 0 0 0
ITEM: TIMESTEP
25
ITEM: NUMBER OF ATOMS
66
ITEM: BOX BOUNDS ss ss ss
-6.73032 6.05561
-3.14478 4.06973
-3.67603 5.44089
ITEM: ATOMS id type xs ys zs ix iy iz
23 2 0.466999 0.909412 0.199305 0 0 0
29 4 0.514151 0.107409 0.372539 0 0 0
31 1 0.49344 0.274881 0.569005 0 0 0
32 2 0.444014 0.0701921 0.419362 0 0 0
33 3 0.511987 0.136971 0.202903 0 0 0
34 3 0.435629 0.288839 0.107747 0 0 0
36 1 0.483092 0.00321922 0.165857 0 0 0
37 4 0.323868 0.305439 0.157636 0 0 0
38 1 0.435878 0.256064 -0.00869555 0 0 0
39 1 0.471721 0.427831 0.115419 0 0 0
49 3 0.22488 0.419602 0.0987785 0 0 0
50 3 0.115866 0.442834 0.183448 0 0 0
51 1 0.204763 0.360136 -0.00743445 0 0 0
52 1 0.252633 0.559804 0.081134 0 0 0
53 4 0.0623834 0.263956 0.213167 0 0 0
54 1 0.0613413 0.536518 0.128654 0 0 0
55 1 0.116978 0.518982 0.288036 0 0 0
56 2 0.0401016 0.203534 0.117814 0 0 0
57 2 0.000559946 0.275665 0.284892 0 0 0
58 3 0.34265 0.319995 0.314465 0 0 0
59 3 0.276886 0.426254 0.409063 0 0 0
60 1 0.343269 0.166013 0.328674 0 0 0
61 1 0.415567 0.390968 0.342533 0 0 0
62 4 0.200325 0.271477 0.428434 0 0 0
63 1 0.271622 0.549079 0.337951 0 0 0
64 1 0.308745 0.484686 0.510031 0 0 0
65 2 0.203332 0.191472 0.331157 0 0 0
66 2 0.128258 0.320708 0.42455 0 0 0
1 3 0.959462 0.858672 0.394758 0 0 0
2 3 0.842085 0.864685 0.43337 0 0 0
3 1 0.969932 0.864034 0.276018 0 0 0
4 1 0.995157 0.731934 0.436673 0 0 0
5 1 0.999311 0.977228 0.443871 0 0 0
6 4 0.783627 0.710196 0.361791 0 0 0
7 1 0.811025 0.998785 0.398516 0 0 0
8 1 0.833253 0.858496 0.552255 0 0 0
9 3 0.783266 0.521577 0.429821 0 0 0
10 3 0.724557 0.509209 0.578906 0 0 0
11 1 0.74977 0.423392 0.351962 0 0 0
12 1 0.863865 0.477311 0.447693 0 0 0
13 4 0.710355 0.313107 0.632426 0 0 0
14 1 0.649486 0.580982 0.571517 0 0 0
15 1 0.77018 0.586069 0.659441 0 0 0
16 3 0.712224 0.753134 0.236545 0 0 0
17 3 0.60426 0.82591 0.286474 0 0 0
18 1 0.700878 0.629907 0.168643 0 0 0
19 1 0.749068 0.857208 0.166274 0 0 0
20 4 0.537797 0.867006 0.159447 0 0 0
21 1 0.613654 0.95266 0.350471 0 0 0
22 1 0.564815 0.722527 0.353855 0 0 0
24 2 0.525213 0.744489 0.105957 0 0 0
25 3 0.651648 0.173363 0.544588 0 0 0
26 3 0.550985 0.247426 0.481103 0 0 0
27 1 0.632151 0.0478167 0.60656 0 0 0
28 1 0.699147 0.132874 0.450863 0 0 0
30 1 0.567827 0.376846 0.427101 0 0 0
35 1 0.592217 0.151427 0.172341 0 0 0
40 3 0.716678 0.277666 0.79275 0 0 0
41 3 0.626994 0.359813 0.886596 0 0 0
42 1 0.721873 0.128646 0.813263 0 0 0
43 1 0.790702 0.336128 0.829699 0 0 0
44 4 0.531566 0.246739 0.885362 0 0 0
45 1 0.607826 0.500047 0.850765 0 0 0
46 1 0.653608 0.366772 1.00015 0 0 0
47 2 0.503887 0.243637 0.780688 0 0 0
48 2 0.552546 0.114244 0.911933 0 0 0
ITEM: TIMESTEP
50
ITEM: NUMBER OF ATOMS
66
ITEM: BOX BOUNDS ss ss ss
-6.6763 6.06036
-3.14195 4.07428
-3.79147 5.46785
ITEM: ATOMS id type xs ys zs ix iy iz
23 2 0.464646 0.908801 0.208923 0 0 0
29 4 0.518046 0.104374 0.363858 0 0 0
31 1 0.495188 0.264116 0.555466 0 0 0
32 2 0.452228 0.043565 0.405596 0 0 0
33 3 0.507367 0.137888 0.201643 0 0 0
34 3 0.430589 0.280775 0.119942 0 0 0
36 1 0.484522 0.000785226 0.163638 0 0 0
37 4 0.317169 0.305855 0.178552 0 0 0
38 1 0.427696 0.241571 0.00589021 0 0 0
39 1 0.469477 0.416561 0.120692 0 0 0
49 3 0.229021 0.417756 0.107219 0 0 0
50 3 0.113496 0.435624 0.174923 0 0 0
51 1 0.214203 0.357337 0.00102182 0 0 0
52 1 0.256105 0.559558 0.0889076 0 0 0
53 4 0.06242 0.258075 0.209315 0 0 0
54 1 0.0618484 0.512858 0.103255 0 0 0
55 1 0.108812 0.519468 0.271706 0 0 0
56 2 0.0317882 0.204869 0.116723 0 0 0
57 2 0.000437224 0.284367 0.277813 0 0 0
58 3 0.336008 0.331185 0.334108 0 0 0
59 3 0.263217 0.426895 0.437091 0 0 0
60 1 0.340805 0.187807 0.369363 0 0 0
61 1 0.406945 0.410529 0.352176 0 0 0
62 4 0.180369 0.288364 0.461323 0 0 0
63 1 0.244888 0.55916 0.387038 0 0 0
64 1 0.303536 0.457377 0.538169 0 0 0
65 2 0.186052 0.197341 0.375374 0 0 0
66 2 0.109927 0.35085 0.449123 0 0 0
1 3 0.959042 0.858284 0.400966 0 0 0
2 3 0.841282 0.864705 0.439401 0 0 0
3 1 0.96938 0.863554 0.284021 0 0 0
4 1 0.994854 0.731529 0.442173 0 0 0
5 1 0.999212 0.976714 0.44919 0 0 0
6 4 0.782214 0.710097 0.369877 0 0 0
7 1 0.810071 0.998617 0.404777 0 0 0
8 1 0.832627 0.859098 0.556496 0 0 0
9 3 0.783062 0.521344 0.436507 0 0 0
10 3 0.725081 0.507885 0.584039 0 0 0
11 1 0.749193 0.423278 0.36011 0 0 0
12 1 0.864214 0.477557 0.452612 0 0 0
13 4 0.71106 0.312384 0.636656 0 0 0
14 1 0.648914 0.576737 0.577465 0 0 0
15 1 0.771053 0.585464 0.662937 0 0 0
16 3 0.710811 0.752242 0.246043 0 0 0
17 3 0.602332 0.824852 0.294909 0 0 0
18 1 0.699629 0.628852 0.179327 0 0 0
19 1 0.747756 0.85627 0.176783 0 0 0
20 4 0.535735 0.866333 0.169759 0 0 0
21 1 0.611678 0.951437 0.358102 0 0 0
22 1 0.562729 0.721371 0.361137 0 0 0
24 2 0.523071 0.744082 0.11677 0 0 0
25 3 0.655205 0.172339 0.545525 0 0 0
26 3 0.554897 0.242868 0.471307 0 0 0
27 1 0.634435 0.0489922 0.608138 0 0 0
28 1 0.708909 0.127086 0.461026 0 0 0
30 1 0.569681 0.374989 0.419351 0 0 0
35 1 0.587971 0.160764 0.165008 0 0 0
40 3 0.716767 0.278247 0.795674 0 0 0
41 3 0.62554 0.359897 0.886324 0 0 0
42 1 0.722746 0.129733 0.817483 0 0 0
43 1 0.790295 0.33842 0.834181 0 0 0
44 4 0.529989 0.246265 0.883022 0 0 0
45 1 0.606371 0.499715 0.850176 0 0 0
46 1 0.65068 0.368077 0.998885 0 0 0
47 2 0.503132 0.243118 0.779312 0 0 0
48 2 0.550917 0.113979 0.910163 0 0 0
ITEM: TIMESTEP
75
ITEM: NUMBER OF ATOMS
66
ITEM: BOX BOUNDS ss ss ss
-6.6763 6.06036
-3.14195 4.07428
-3.79147 5.46785
ITEM: ATOMS id type xs ys zs ix iy iz
23 2 0.464804 0.90867 0.209195 0 0 0
29 4 0.520808 0.0979917 0.353757 0 0 0
31 1 0.49783 0.261195 0.542684 0 0 0
32 2 0.456354 0.0328463 0.395816 0 0 0
33 3 0.506472 0.134907 0.196238 0 0 0
34 3 0.424028 0.278044 0.125108 0 0 0
36 1 0.485287 -0.000442732 0.152984 0 0 0
37 4 0.315864 0.299657 0.191603 0 0 0
38 1 0.416381 0.237164 0.0119833 0 0 0
39 1 0.463351 0.413239 0.122054 0 0 0
49 3 0.23406 0.414446 0.108027 0 0 0
50 3 0.118225 0.43069 0.162765 0 0 0
51 1 0.227739 0.353035 0.000513244 0 0 0
52 1 0.264103 0.554813 0.0935577 0 0 0
53 4 0.0669416 0.254275 0.199833 0 0 0
54 1 0.0693086 0.497917 0.0809075 0 0 0
55 1 0.110819 0.52178 0.255626 0 0 0
56 2 0.0342841 0.202864 0.107535 0 0 0
57 2 0.0056351 0.284693 0.267615 0 0 0
58 3 0.332773 0.342239 0.346606 0 0 0
59 3 0.255369 0.429479 0.45082 0 0 0
60 1 0.34529 0.20515 0.392472 0 0 0
61 1 0.402213 0.429859 0.358452 0 0 0
62 4 0.169237 0.298606 0.475839 0 0 0
63 1 0.231697 0.565048 0.41105 0 0 0
64 1 0.295304 0.45174 0.553603 0 0 0
65 2 0.175705 0.199987 0.396394 0 0 0
66 2 0.101189 0.367672 0.456274 0 0 0
1 3 0.959226 0.858755 0.400753 0 0 0
2 3 0.841582 0.865599 0.439784 0 0 0
3 1 0.969246 0.863763 0.283748 0 0 0
4 1 0.995059 0.731993 0.441904 0 0 0
5 1 0.999648 0.977133 0.448647 0 0 0
6 4 0.782247 0.710758 0.370948 0 0 0
7 1 0.81032 0.999366 0.404913 0 0 0
8 1 0.833172 0.860423 0.556938 0 0 0
9 3 0.784312 0.52178 0.43692 0 0 0
10 3 0.725717 0.507097 0.583749 0 0 0
11 1 0.751303 0.423417 0.360081 0 0 0
12 1 0.865665 0.479207 0.45316 0 0 0
13 4 0.711077 0.312272 0.636318 0 0 0
14 1 0.649354 0.575017 0.576876 0 0 0
15 1 0.771546 0.584786 0.663178 0 0 0
16 3 0.710946 0.752035 0.246883 0 0 0
17 3 0.60233 0.824331 0.295479 0 0 0
18 1 0.699951 0.628314 0.18046 0 0 0
19 1 0.747816 0.855913 0.177447 0 0 0
20 4 0.535922 0.866106 0.170189 0 0 0
21 1 0.611526 0.950773 0.358884 0 0 0
22 1 0.562678 0.720637 0.361471 0 0 0
24 2 0.523252 0.744007 0.116983 0 0 0
25 3 0.657546 0.170811 0.541819 0 0 0
26 3 0.558652 0.238342 0.46141 0 0 0
27 1 0.635982 0.0487577 0.605319 0 0 0
28 1 0.714716 0.124489 0.462087 0 0 0
30 1 0.573534 0.368984 0.406813 0 0 0
35 1 0.58414 0.167452 0.15371 0 0 0
40 3 0.717119 0.278634 0.795415 0 0 0
41 3 0.625567 0.360208 0.885959 0 0 0
42 1 0.723762 0.130484 0.818179 0 0 0
43 1 0.790221 0.340258 0.834718 0 0 0
44 4 0.530263 0.246409 0.880477 0 0 0
45 1 0.60666 0.50014 0.849856 0 0 0
46 1 0.649803 0.368102 0.998907 0 0 0
47 2 0.505345 0.242275 0.775835 0 0 0
48 2 0.551063 0.114494 0.908951 0 0 0
ITEM: TIMESTEP
100
ITEM: NUMBER OF ATOMS
66
ITEM: BOX BOUNDS ss ss ss
-6.6763 6.06036
-3.14195 4.07428
-3.79147 5.46785
ITEM: ATOMS id type xs ys zs ix iy iz
23 2 0.465258 0.907856 0.210494 0 0 0
29 4 0.521849 0.0879546 0.351283 0 0 0
31 1 0.504667 0.268479 0.529862 0 0 0
32 2 0.455741 0.031309 0.395236 0 0 0
33 3 0.502679 0.126997 0.195098 0 0 0
34 3 0.420549 0.273301 0.140321 0 0 0
36 1 0.481192 -0.00670106 0.148507 0 0 0
37 4 0.31326 0.296477 0.211099 0 0 0
38 1 0.408344 0.236258 0.0267482 0 0 0
39 1 0.459506 0.408558 0.137622 0 0 0
49 3 0.242388 0.412239 0.116062 0 0 0
50 3 0.123406 0.426855 0.151853 0 0 0
51 1 0.243757 0.352731 0.00730692 0 0 0
52 1 0.273944 0.552758 0.107476 0 0 0
53 4 0.0754482 0.248092 0.1879 0 0 0
54 1 0.0815148 0.48387 0.0589792 0 0 0
55 1 0.109783 0.523096 0.23988 0 0 0
56 2 0.0483419 0.192015 0.0936891 0 0 0
57 2 0.0107227 0.276538 0.249565 0 0 0
58 3 0.328055 0.356804 0.365161 0 0 0
59 3 0.241774 0.436978 0.463987 0 0 0
60 1 0.349452 0.230003 0.420817 0 0 0
61 1 0.392496 0.456648 0.371562 0 0 0
62 4 0.154868 0.307345 0.487277 0 0 0
63 1 0.2148 0.570676 0.424447 0 0 0
64 1 0.276637 0.462254 0.570094 0 0 0
65 2 0.162575 0.203237 0.413188 0 0 0
66 2 0.0873115 0.376676 0.462643 0 0 0
1 3 0.960192 0.861404 0.399946 0 0 0
2 3 0.842695 0.867491 0.440024 0 0 0
3 1 0.96953 0.865654 0.282817 0 0 0
4 1 0.996573 0.735176 0.441169 0 0 0
5 1 1.00062 0.980307 0.446971 0 0 0
6 4 0.783856 0.712068 0.371325 0 0 0
7 1 0.810889 1.00099 0.405512 0 0 0
8 1 0.834781 0.861792 0.557302 0 0 0
9 3 0.787715 0.523061 0.436615 0 0 0
10 3 0.72493 0.506145 0.579921 0 0 0
11 1 0.759057 0.422993 0.357967 0 0 0
12 1 0.869183 0.484982 0.457889 0 0 0
13 4 0.711044 0.310726 0.630956 0 0 0
14 1 0.647922 0.570619 0.568666 0 0 0
15 1 0.767356 0.585765 0.661513 0 0 0
16 3 0.711513 0.752082 0.248104 0 0 0
17 3 0.602697 0.823107 0.297002 0 0 0
18 1 0.700754 0.627943 0.182125 0 0 0
19 1 0.747731 0.856115 0.178221 0 0 0
20 4 0.536468 0.865583 0.171639 0 0 0
21 1 0.611445 0.948936 0.361261 0 0 0
22 1 0.563007 0.718475 0.362027 0 0 0
24 2 0.523961 0.743753 0.117972 0 0 0
25 3 0.661394 0.16795 0.534634 0 0 0
26 3 0.563627 0.233893 0.448974 0 0 0
27 1 0.638289 0.0463138 0.597434 0 0 0
28 1 0.720848 0.121331 0.457956 0 0 0
30 1 0.580954 0.358629 0.387371 0 0 0
35 1 0.578699 0.163512 0.147797 0 0 0
40 3 0.717126 0.276826 0.790601 0 0 0
41 3 0.625571 0.358298 0.880707 0 0 0
42 1 0.723838 0.128664 0.813027 0 0 0
43 1 0.790071 0.338799 0.829815 0 0 0
44 4 0.529898 0.246037 0.871394 0 0 0
45 1 0.60767 0.49942 0.846378 0 0 0
46 1 0.648666 0.363235 0.994346 0 0 0
47 2 0.509206 0.238546 0.765116 0 0 0
48 2 0.549247 0.114964 0.903828 0 0 0
ITEM: TIMESTEP
125
ITEM: NUMBER OF ATOMS
66
ITEM: BOX BOUNDS ss ss ss
-6.6763 6.06036
-3.14195 4.07428
-3.79147 5.46785
ITEM: ATOMS id type xs ys zs ix iy iz
23 2 0.465356 0.907666 0.210877 0 0 0
29 4 0.521269 0.0871478 0.352347 0 0 0
31 1 0.505626 0.270707 0.529328 0 0 0
32 2 0.45489 0.0327746 0.397275 0 0 0
33 3 0.501892 0.12508 0.196524 0 0 0
34 3 0.420549 0.273612 0.142307 0 0 0
36 1 0.479039 -0.0081539 0.150372 0 0 0
37 4 0.313338 0.29699 0.212664 0 0 0
38 1 0.408852 0.237804 0.0284675 0 0 0
39 1 0.460284 0.408162 0.140906 0 0 0
49 3 0.242813 0.413228 0.11708 0 0 0
50 3 0.123648 0.42634 0.1512 0 0 0
51 1 0.245159 0.354639 0.00806549 0 0 0
52 1 0.274209 0.553926 0.109717 0 0 0
53 4 0.0761964 0.246982 0.186749 0 0 0
54 1 0.0821721 0.482662 0.0576592 0 0 0
55 1 0.108879 0.522535 0.238955 0 0 0
56 2 0.0509322 0.189626 0.0920427 0 0 0
57 2 0.0103984 0.274638 0.246407 0 0 0
58 3 0.327391 0.357972 0.366795 0 0 0
59 3 0.240343 0.437844 0.464455 0 0 0
60 1 0.349173 0.231816 0.42315 0 0 0
61 1 0.391556 0.458452 0.373341 0 0 0
62 4 0.153642 0.307564 0.487507 0 0 0
63 1 0.213054 0.570962 0.424074 0 0 0
64 1 0.274448 0.464388 0.570826 0 0 0
65 2 0.161405 0.203853 0.413114 0 0 0
66 2 0.0859007 0.376622 0.463365 0 0 0
1 3 0.960424 0.862185 0.399744 0 0 0
2 3 0.842948 0.867842 0.439959 0 0 0
3 1 0.969702 0.866357 0.282606 0 0 0
4 1 0.996983 0.736112 0.440992 0 0 0
5 1 1.00075 0.981257 0.44667 0 0 0
6 4 0.784232 0.712371 0.371164 0 0 0
7 1 0.81097 1.0013 0.405521 0 0 0
8 1 0.835093 0.862004 0.557221 0 0 0
9 3 0.788326 0.523302 0.436667 0 0 0
10 3 0.724934 0.505975 0.579183 0 0 0
11 1 0.760371 0.423002 0.357655 0 0 0
12 1 0.8698 0.486038 0.458667 0 0 0
13 4 0.711656 0.310316 0.630329 0 0 0
14 1 0.647734 0.569451 0.567324 0 0 0
15 1 0.766618 0.586165 0.661277 0 0 0
16 3 0.711713 0.752078 0.248232 0 0 0
17 3 0.602824 0.822901 0.297226 0 0 0
18 1 0.700953 0.62793 0.182259 0 0 0
19 1 0.747743 0.856226 0.178219 0 0 0
20 4 0.536583 0.865556 0.171952 0 0 0
21 1 0.611538 0.948562 0.361681 0 0 0
22 1 0.563179 0.718046 0.362077 0 0 0
24 2 0.524103 0.743823 0.11813 0 0 0
25 3 0.661849 0.167645 0.533633 0 0 0
26 3 0.564185 0.234012 0.448569 0 0 0
27 1 0.638876 0.0458977 0.596467 0 0 0
28 1 0.721296 0.121217 0.456922 0 0 0
30 1 0.581911 0.357481 0.385542 0 0 0
35 1 0.577866 0.159741 0.148324 0 0 0
40 3 0.717349 0.276327 0.789618 0 0 0
41 3 0.62556 0.35774 0.879635 0 0 0
42 1 0.723994 0.128138 0.812183 0 0 0
43 1 0.790209 0.338298 0.829256 0 0 0
44 4 0.529843 0.245795 0.869598 0 0 0
45 1 0.607908 0.498998 0.845411 0 0 0
46 1 0.648408 0.362256 0.9933 0 0 0
47 2 0.509664 0.237935 0.763154 0 0 0
48 2 0.548837 0.114763 0.902546 0 0 0
ITEM: TIMESTEP
150
ITEM: NUMBER OF ATOMS
66
ITEM: BOX BOUNDS ss ss ss
-6.6763 6.06036
-3.14195 4.07428
-3.79147 5.46785
ITEM: ATOMS id type xs ys zs ix iy iz
23 2 0.465465 0.907482 0.21126 0 0 0
29 4 0.520749 0.0865319 0.353714 0 0 0
31 1 0.506493 0.272812 0.528912 0 0 0
32 2 0.454093 0.0341642 0.399272 0 0 0
33 3 0.50084 0.123494 0.197643 0 0 0
34 3 0.42079 0.273724 0.144235 0 0 0
36 1 0.476723 -0.00953047 0.152351 0 0 0
37 4 0.313214 0.297707 0.214034 0 0 0
38 1 0.40934 0.239419 0.03002 0 0 0
39 1 0.461025 0.40782 0.144042 0 0 0
49 3 0.243308 0.414078 0.118085 0 0 0
50 3 0.123753 0.425847 0.150598 0 0 0
51 1 0.246438 0.356611 0.00874237 0 0 0
52 1 0.274355 0.555156 0.111849 0 0 0
53 4 0.076902 0.245868 0.185615 0 0 0
54 1 0.0827545 0.481509 0.0564729 0 0 0
55 1 0.108003 0.521867 0.238108 0 0 0
56 2 0.0534668 0.187283 0.0904801 0 0 0
57 2 0.0100418 0.272722 0.243245 0 0 0
58 3 0.326869 0.359003 0.368255 0 0 0
59 3 0.239001 0.438647 0.464892 0 0 0
60 1 0.348881 0.233475 0.425227 0 0 0
61 1 0.390692 0.460067 0.374989 0 0 0
62 4 0.152598 0.307701 0.487634 0 0 0
63 1 0.211494 0.571179 0.423702 0 0 0
64 1 0.272473 0.466298 0.571468 0 0 0
65 2 0.160334 0.204553 0.41278 0 0 0
66 2 0.0846469 0.376566 0.464141 0 0 0
1 3 0.960651 0.862972 0.399547 0 0 0
2 3 0.843175 0.868258 0.43986 0 0 0
3 1 0.969861 0.867104 0.282395 0 0 0
4 1 0.997384 0.737076 0.440802 0 0 0
5 1 1.00086 0.982229 0.44638 0 0 0
6 4 0.784631 0.71252 0.371129 0 0 0
7 1 0.811047 1.00159 0.405531 0 0 0
8 1 0.835394 0.862237 0.557155 0 0 0
9 3 0.788938 0.52365 0.436532 0 0 0
10 3 0.725001 0.505721 0.578757 0 0 0
11 1 0.76158 0.423028 0.357412 0 0 0
12 1 0.870401 0.486999 0.459343 0 0 0
13 4 0.712221 0.309912 0.629403 0 0 0
14 1 0.64764 0.56841 0.566149 0 0 0
15 1 0.766037 0.586461 0.661014 0 0 0
16 3 0.711862 0.752138 0.248284 0 0 0
17 3 0.602998 0.822666 0.297453 0 0 0
18 1 0.701166 0.627903 0.182396 0 0 0
19 1 0.747771 0.856306 0.178228 0 0 0
20 4 0.536693 0.865545 0.172246 0 0 0
21 1 0.611643 0.948199 0.362089 0 0 0
22 1 0.563359 0.717632 0.362125 0 0 0
24 2 0.524252 0.74391 0.11828 0 0 0
25 3 0.662391 0.167443 0.533021 0 0 0
26 3 0.564546 0.234058 0.447991 0 0 0
27 1 0.639391 0.0455645 0.595592 0 0 0
28 1 0.721656 0.121086 0.455941 0 0 0
30 1 0.582768 0.35642 0.383949 0 0 0
35 1 0.57696 0.155825 0.148774 0 0 0
40 3 0.717549 0.275886 0.78904 0 0 0
41 3 0.625609 0.357182 0.878495 0 0 0
42 1 0.724193 0.127697 0.811416 0 0 0
43 1 0.790332 0.337889 0.82877 0 0 0
44 4 0.529789 0.245488 0.867875 0 0 0
45 1 0.608104 0.498583 0.844491 0 0 0
46 1 0.648135 0.361355 0.992358 0 0 0
47 2 0.510112 0.237377 0.761266 0 0 0
48 2 0.548497 0.114513 0.901225 0 0 0
ITEM: TIMESTEP
175
ITEM: NUMBER OF ATOMS
66
ITEM: BOX BOUNDS ss ss ss
-6.6763 6.06036
-3.14195 4.07428
-3.79147 5.46785
ITEM: ATOMS id type xs ys zs ix iy iz
23 2 0.465578 0.907305 0.211642 0 0 0
29 4 0.520161 0.085928 0.354778 0 0 0
31 1 0.507293 0.274795 0.528501 0 0 0
32 2 0.45337 0.0354777 0.401282 0 0 0
33 3 0.49991 0.12172 0.199003 0 0 0
34 3 0.420774 0.274102 0.145969 0 0 0
36 1 0.474289 -0.0107928 0.154379 0 0 0
37 4 0.313254 0.298323 0.215315 0 0 0
38 1 0.409841 0.241018 0.0315018 0 0 0
39 1 0.461765 0.407452 0.147038 0 0 0
49 3 0.243612 0.415099 0.118958 0 0 0
50 3 0.123912 0.425317 0.150024 0 0 0
51 1 0.24764 0.358601 0.0093762 0 0 0
52 1 0.274421 0.556373 0.113896 0 0 0
53 4 0.0775517 0.244755 0.184501 0 0 0
54 1 0.0832583 0.480446 0.0553751 0 0 0
55 1 0.107137 0.521137 0.237352 0 0 0
56 2 0.0559671 0.185011 0.0889786 0 0 0
57 2 0.00968761 0.270768 0.240071 0 0 0
58 3 0.326306 0.360028 0.369605 0 0 0
59 3 0.237827 0.439356 0.465257 0 0 0
60 1 0.348604 0.234989 0.427105 0 0 0
61 1 0.389906 0.461587 0.376513 0 0 0
62 4 0.151649 0.307759 0.487694 0 0 0
63 1 0.210056 0.57137 0.42334 0 0 0
64 1 0.270649 0.468033 0.572042 0 0 0
65 2 0.159326 0.205331 0.412247 0 0 0
66 2 0.0835164 0.376498 0.464998 0 0 0
1 3 0.96086 0.863787 0.399346 0 0 0
2 3 0.843405 0.868607 0.439799 0 0 0
3 1 0.970008 0.86788 0.282186 0 0 0
4 1 0.997777 0.738043 0.440605 0 0 0
5 1 1.00095 0.98321 0.446099 0 0 0
6 4 0.784979 0.712812 0.370992 0 0 0
7 1 0.811103 1.00189 0.405533 0 0 0
8 1 0.835687 0.862484 0.557079 0 0 0
9 3 0.789509 0.523846 0.436575 0 0 0
10 3 0.725137 0.505559 0.578155 0 0 0
11 1 0.762696 0.423064 0.357172 0 0 0
12 1 0.870981 0.487892 0.459897 0 0 0
13 4 0.712832 0.30953 0.628903 0 0 0
14 1 0.647637 0.567468 0.565144 0 0 0
15 1 0.765614 0.586684 0.660813 0 0 0
16 3 0.712073 0.752119 0.2484 0 0 0
17 3 0.603141 0.82247 0.29766 0 0 0
18 1 0.701377 0.627879 0.182518 0 0 0
19 1 0.747813 0.856395 0.178223 0 0 0
20 4 0.536822 0.865536 0.172549 0 0 0
21 1 0.611762 0.947837 0.362483 0 0 0
22 1 0.563551 0.717224 0.362173 0 0 0
24 2 0.524406 0.744007 0.118419 0 0 0
25 3 0.662752 0.167224 0.532229 0 0 0
26 3 0.564986 0.234204 0.447726 0 0 0
27 1 0.639862 0.0452781 0.59487 0 0 0
28 1 0.72196 0.12095 0.455083 0 0 0
30 1 0.583546 0.355422 0.382471 0 0 0
35 1 0.575951 0.151865 0.149149 0 0 0
40 3 0.717789 0.275495 0.788229 0 0 0
41 3 0.625584 0.35667 0.877537 0 0 0
42 1 0.724419 0.127292 0.810763 0 0 0
43 1 0.790459 0.337574 0.82839 0 0 0
44 4 0.529772 0.245165 0.866202 0 0 0
45 1 0.608274 0.498169 0.843598 0 0 0
46 1 0.647843 0.360511 0.991435 0 0 0
47 2 0.510543 0.236852 0.759453 0 0 0
48 2 0.548216 0.114204 0.89988 0 0 0
ITEM: TIMESTEP
200
ITEM: NUMBER OF ATOMS
66
ITEM: BOX BOUNDS ss ss ss
-6.6763 6.06036
-3.14195 4.07428
-3.79147 5.46785
ITEM: ATOMS id type xs ys zs ix iy iz
23 2 0.465706 0.907127 0.212032 0 0 0
29 4 0.519637 0.0854405 0.356138 0 0 0
31 1 0.50807 0.276784 0.528122 0 0 0
32 2 0.452691 0.0367434 0.403324 0 0 0
33 3 0.498737 0.120183 0.200145 0 0 0
34 3 0.42097 0.27426 0.147745 0 0 0
36 1 0.471714 -0.0120228 0.156552 0 0 0
37 4 0.313109 0.299136 0.216514 0 0 0
38 1 0.410315 0.242635 0.032937 0 0 0
39 1 0.462481 0.407075 0.149996 0 0 0
49 3 0.244009 0.416027 0.119874 0 0 0
50 3 0.123966 0.424805 0.149467 0 0 0
51 1 0.248796 0.360705 0.00998481 0 0 0
52 1 0.274406 0.557681 0.115932 0 0 0
53 4 0.0782156 0.243602 0.183333 0 0 0
54 1 0.0837379 0.479413 0.0543402 0 0 0
55 1 0.106264 0.520297 0.23663 0 0 0
56 2 0.0585396 0.182736 0.0874665 0 0 0
57 2 0.00932788 0.268703 0.236759 0 0 0
58 3 0.325835 0.361011 0.370882 0 0 0
59 3 0.236638 0.440061 0.46563 0 0 0
60 1 0.348323 0.236503 0.428884 0 0 0
61 1 0.389121 0.46309 0.377986 0 0 0
62 4 0.15078 0.307765 0.487701 0 0 0
63 1 0.208668 0.571522 0.422984 0 0 0
64 1 0.268886 0.469685 0.572584 0 0 0
65 2 0.158312 0.206217 0.411524 0 0 0
66 2 0.0824315 0.376424 0.465987 0 0 0
1 3 0.961071 0.864621 0.399144 0 0 0
2 3 0.843619 0.869029 0.439702 0 0 0
3 1 0.970146 0.868713 0.281969 0 0 0
4 1 0.998174 0.73906 0.440386 0 0 0
5 1 1.00104 0.984236 0.445818 0 0 0
6 4 0.785374 0.712931 0.370972 0 0 0
7 1 0.811156 1.00217 0.40555 0 0 0
8 1 0.835981 0.862727 0.557018 0 0 0
9 3 0.790109 0.524175 0.436413 0 0 0
10 3 0.725315 0.505291 0.577823 0 0 0
11 1 0.763775 0.423102 0.356968 0 0 0
12 1 0.871573 0.488728 0.460392 0 0 0
13 4 0.713405 0.309172 0.628071 0 0 0
14 1 0.647699 0.566616 0.564209 0 0 0
15 1 0.765293 0.586838 0.660565 0 0 0
16 3 0.712233 0.752177 0.248436 0 0 0
17 3 0.603336 0.822231 0.297881 0 0 0
18 1 0.701606 0.627845 0.18264 0 0 0
19 1 0.747865 0.856461 0.17823 0 0 0
20 4 0.536947 0.865539 0.172841 0 0 0
21 1 0.611892 0.947472 0.362884 0 0 0
22 1 0.563753 0.716813 0.362221 0 0 0
24 2 0.524572 0.744115 0.118559 0 0 0
25 3 0.663226 0.167066 0.531757 0 0 0
26 3 0.565288 0.23428 0.447248 0 0 0
27 1 0.64029 0.0450464 0.594179 0 0 0
28 1 0.722235 0.120781 0.45425 0 0 0
30 1 0.584313 0.35442 0.381076 0 0 0
35 1 0.574857 0.147733 0.149508 0 0 0
40 3 0.718002 0.275129 0.787767 0 0 0
41 3 0.625617 0.356131 0.876466 0 0 0
42 1 0.724678 0.126944 0.810127 0 0 0
43 1 0.790572 0.337315 0.828033 0 0 0
44 4 0.529748 0.244766 0.864536 0 0 0
45 1 0.608409 0.497742 0.84272 0 0 0
46 1 0.647531 0.359684 0.990568 0 0 0
47 2 0.510978 0.236341 0.757638 0 0 0
48 2 0.547979 0.113839 0.898464 0 0 0
ITEM: TIMESTEP
225
ITEM: NUMBER OF ATOMS
66
ITEM: BOX BOUNDS ss ss ss
-6.6763 6.06036
-3.14195 4.07428
-3.79147 5.46785
ITEM: ATOMS id type xs ys zs ix iy iz
23 2 0.465845 0.906943 0.212447 0 0 0
29 4 0.519025 0.0849118 0.357304 0 0 0
31 1 0.508862 0.278837 0.527683 0 0 0
32 2 0.452045 0.0380185 0.405519 0 0 0
33 3 0.497612 0.118374 0.201594 0 0 0
34 3 0.420926 0.274645 0.149483 0 0 0
36 1 0.468917 -0.0132144 0.158904 0 0 0
37 4 0.313104 0.299897 0.217742 0 0 0
38 1 0.410806 0.24426 0.0344348 0 0 0
39 1 0.463223 0.406622 0.153001 0 0 0
49 3 0.244262 0.417178 0.120745 0 0 0
50 3 0.124086 0.424231 0.148889 0 0 0
51 1 0.249975 0.362969 0.0106139 0 0 0
52 1 0.274329 0.55906 0.118046 0 0 0
53 4 0.0788914 0.242368 0.182072 0 0 0
54 1 0.0841957 0.478408 0.0532995 0 0 0
55 1 0.105339 0.519339 0.235937 0 0 0
56 2 0.0612799 0.180399 0.0858781 0 0 0
57 2 0.00897618 0.266432 0.233177 0 0 0
58 3 0.32528 0.362096 0.372176 0 0 0
59 3 0.235497 0.440737 0.465974 0 0 0
60 1 0.348052 0.238046 0.430645 0 0 0
61 1 0.38833 0.464673 0.37945 0 0 0
62 4 0.149914 0.307703 0.487671 0 0 0
63 1 0.207256 0.571666 0.422624 0 0 0
64 1 0.267101 0.471322 0.573121 0 0 0
65 2 0.157241 0.207258 0.41059 0 0 0
66 2 0.0813563 0.376324 0.467182 0 0 0
1 3 0.961278 0.86554 0.398921 0 0 0
2 3 0.843852 0.869391 0.439641 0 0 0
3 1 0.970281 0.869628 0.28174 0 0 0
4 1 0.998591 0.740142 0.440144 0 0 0
5 1 1.00111 0.985332 0.445528 0 0 0
6 4 0.785747 0.713225 0.370822 0 0 0
7 1 0.811188 1.00248 0.405565 0 0 0
8 1 0.836288 0.862982 0.55694 0 0 0
9 3 0.79071 0.524339 0.436431 0 0 0
10 3 0.725567 0.505125 0.577256 0 0 0
11 1 0.764853 0.423144 0.356737 0 0 0
12 1 0.872188 0.489559 0.460809 0 0 0
13 4 0.714053 0.308785 0.627612 0 0 0
14 1 0.647843 0.565792 0.563345 0 0 0
15 1 0.765082 0.586945 0.660356 0 0 0
16 3 0.712474 0.752145 0.248546 0 0 0
17 3 0.603508 0.822019 0.298097 0 0 0
18 1 0.701845 0.627816 0.182749 0 0 0
19 1 0.747931 0.856548 0.178219 0 0 0
20 4 0.537102 0.865539 0.173165 0 0 0
21 1 0.612044 0.947078 0.3633 0 0 0
22 1 0.56398 0.716375 0.362271 0 0 0
24 2 0.524753 0.744236 0.118699 0 0 0
25 3 0.663568 0.166881 0.531054 0 0 0
26 3 0.565715 0.234448 0.44701 0 0 0
27 1 0.64071 0.0448336 0.593577 0 0 0
28 1 0.7225 0.120584 0.453485 0 0 0
30 1 0.585095 0.353379 0.379641 0 0 0
35 1 0.573595 0.143356 0.149853 0 0 0
40 3 0.718269 0.274789 0.787011 0 0 0
41 3 0.625571 0.35559 0.875503 0 0 0
42 1 0.724972 0.126596 0.809545 0 0 0
43 1 0.790693 0.337119 0.82774 0 0 0
44 4 0.529756 0.244324 0.8628 0 0 0
45 1 0.608525 0.497282 0.841808 0 0 0
46 1 0.64718 0.35884 0.98965 0 0 0
47 2 0.511423 0.235812 0.755769 0 0 0
48 2 0.547777 0.113385 0.896937 0 0 0
ITEM: TIMESTEP
250
ITEM: NUMBER OF ATOMS
66
ITEM: BOX BOUNDS ss ss ss
-6.6763 6.06036
-3.14195 4.07428
-3.79147 5.46785
ITEM: ATOMS id type xs ys zs ix iy iz
23 2 0.466041 0.906702 0.212986 0 0 0
29 4 0.518331 0.0843853 0.359111 0 0 0
31 1 0.509865 0.281501 0.527119 0 0 0
32 2 0.451299 0.0395836 0.408361 0 0 0
33 3 0.495914 0.11636 0.20322 0 0 0
34 3 0.421075 0.274852 0.151733 0 0 0
36 1 0.465244 -0.0146443 0.162081 0 0 0
37 4 0.312881 0.301088 0.219232 0 0 0
38 1 0.411355 0.246221 0.0363085 0 0 0
39 1 0.464098 0.405997 0.156708 0 0 0
49 3 0.244681 0.418556 0.12191 0 0 0
50 3 0.124124 0.423517 0.148161 0 0 0
51 1 0.251426 0.366013 0.0114016 0 0 0
52 1 0.274127 0.560924 0.120744 0 0 0
53 4 0.0797855 0.240737 0.180345 0 0 0
54 1 0.0847601 0.4772 0.0520429 0 0 0
55 1 0.104147 0.517952 0.2351 0 0 0
56 2 0.0648835 0.177477 0.0838029 0 0 0
57 2 0.00856493 0.263346 0.228384 0 0 0
58 3 0.324672 0.363464 0.373741 0 0 0
59 3 0.234014 0.441595 0.466434 0 0 0
60 1 0.347724 0.24007 0.432788 0 0 0
61 1 0.387306 0.466736 0.381231 0 0 0
62 4 0.148902 0.307545 0.487587 0 0 0
63 1 0.205487 0.571797 0.422192 0 0 0
64 1 0.26488 0.473316 0.573778 0 0 0
65 2 0.155814 0.208783 0.40915 0 0 0
66 2 0.0800333 0.376162 0.468998 0 0 0
1 3 0.961543 0.866727 0.398637 0 0 0
2 3 0.844126 0.869946 0.439512 0 0 0
3 1 0.970439 0.870876 0.281434 0 0 0
4 1 0.999128 0.74158 0.439798 0 0 0
5 1 1.00118 0.986783 0.445166 0 0 0
6 4 0.78629 0.71333 0.37078 0 0 0
7 1 0.811222 1.00282 0.405615 0 0 0
8 1 0.836679 0.863269 0.556859 0 0 0
9 3 0.791518 0.524742 0.436167 0 0 0
10 3 0.725935 0.504743 0.57688 0 0 0
11 1 0.766182 0.423182 0.356476 0 0 0
12 1 0.872991 0.490526 0.461262 0 0 0
13 4 0.71483 0.308368 0.626619 0 0 0
14 1 0.648108 0.564867 0.562322 0 0 0
15 1 0.764947 0.587002 0.660027 0 0 0
16 3 0.712707 0.752215 0.248569 0 0 0
17 3 0.603801 0.821682 0.298389 0 0 0
18 1 0.702172 0.627764 0.182879 0 0 0
19 1 0.748028 0.856626 0.178221 0 0 0
20 4 0.537293 0.865552 0.173563 0 0 0
21 1 0.612254 0.946568 0.363838 0 0 0
22 1 0.564284 0.715805 0.362332 0 0 0
24 2 0.524999 0.744403 0.118877 0 0 0
25 3 0.66414 0.166693 0.530548 0 0 0
26 3 0.566116 0.234594 0.446451 0 0 0
27 1 0.641187 0.0446414 0.592859 0 0 0
28 1 0.722817 0.120272 0.45257 0 0 0
30 1 0.586115 0.352016 0.37788 0 0 0
35 1 0.571864 0.137672 0.150305 0 0 0
40 3 0.718565 0.274382 0.786491 0 0 0
41 3 0.625583 0.354865 0.874138 0 0 0
42 1 0.725388 0.126236 0.808828 0 0 0
43 1 0.790826 0.336953 0.827397 0 0 0
44 4 0.529754 0.243642 0.860609 0 0 0
45 1 0.608619 0.496671 0.840672 0 0 0
46 1 0.646705 0.357779 0.988555 0 0 0
47 2 0.511988 0.235144 0.753399 0 0 0
48 2 0.547583 0.112718 0.894907 0 0 0
ITEM: TIMESTEP
275
ITEM: NUMBER OF ATOMS
66
ITEM: BOX BOUNDS ss ss ss
-6.6763 6.06036
-3.14195 4.07428
-3.79147 5.46785
ITEM: ATOMS id type xs ys zs ix iy iz
23 2 0.466421 0.906257 0.213982 0 0 0
29 4 0.517023 0.0835364 0.361988 0 0 0
31 1 0.511668 0.286376 0.525906 0 0 0
32 2 0.450188 0.0423195 0.413618 0 0 0
33 3 0.492953 0.112585 0.206588 0 0 0
34 3 0.420852 0.275417 0.155508 0 0 0
36 1 0.458547 -0.0168375 0.168085 0 0 0
37 4 0.31263 0.303135 0.221836 0 0 0
38 1 0.412136 0.249152 0.0396617 0 0 0
39 1 0.46548 0.404663 0.162851 0 0 0
49 3 0.245121 0.421382 0.12387 0 0 0
50 3 0.124264 0.422158 0.146841 0 0 0
51 1 0.253934 0.371789 0.0128301 0 0 0
52 1 0.273531 0.564352 0.125614 0 0 0
53 4 0.0814054 0.237669 0.176908 0 0 0
54 1 0.0856899 0.47534 0.0499041 0 0 0
55 1 0.101953 0.515059 0.23377 0 0 0