Created by /home/tpascal/scripts/createLammpsInput.pl on Thu Nov 26 12:11:01 2015

          90 atoms
          89 bonds
         165 angles
         225 dihedrals
           0 impropers

           4 atom types
           4 bond types
           2 angle types
           2 dihedral types
           0 improper types

           -50.000000  50.000000 xlo xhi
           -50.000000  50.000000 ylo yhi
           -50.000000  50.000000 zlo zhi

Masses

    1   1.0080 # H_     
    2   1.0080 # H___A  
    3  12.0110 # C_3    
    4  14.0067 # N_3    

Pair Coeffs

    1      0.01520000      2.84642140 
    2      0.00010000      2.84642140 
    3      0.09510000      3.47299047 
    4      0.07740000      3.26256020                 

Bond Coeffs

    1             350           1.462 # N_3 C_3 
    2             350           1.022 # N_3 H___A 
    3             350            1.53 # C_3 C_3 
    4             350            1.09 # C_3 H_                 

Angle Coeffs

    1              50           106.7 # X N_3 X 
    2              50         109.471 # X C_3 X                 

Dihedral Coeffs

    1        0.166667               3               0 0 # X N_3 C_3 X 
    2        0.111111               3               0 0 # X C_3 C_3 X 

Atoms

       1        0        3    -0.45170    6.26938    2.35620    0.33788    0    0    0
       2        0        3    -0.10261    5.11412    1.56547    0.99106    0    0    0
       3        0        1     0.15635    5.88251    3.07420   -0.38673    0    0    0
       4        0        1     0.14637    6.95699    1.67267   -0.16294    0    0    0
       5        0        1     0.14217    6.81887    2.90873    1.10242    0    0    0
       6        0        4    -0.13058    4.43394    0.57699    0.09185    0    0    0
       7        0        1     0.13451    4.38433    2.27330    1.39083    0    0    0
       8        0        1     0.10549    5.54592    1.02793    1.84038    0    0    0
       9        1        3    -0.30533    3.68909   -0.53212    0.77268    0    0    0
      10        1        3    -0.10261    2.59864   -0.09031    1.78824    0    0    0
      11        1        1     0.15635    3.24503   -1.18534    0.02065    0    0    0
      12        1        1     0.14217    4.41908   -1.14274    1.30936    0    0    0
      13        1        4    -0.13058    1.83001   -1.24081    2.36925    0    0    0
      14        1        1     0.13451    1.91177    0.61691    1.32556    0    0    0
      15        1        1     0.10549    3.10735    0.45078    2.58929    0    0    0
      16        2        3    -0.30533    3.90544    1.04603   -1.23199    0    0    0
      17        2        3    -0.10261    2.68635    2.00610   -1.18353    0    0    0
      18        2        1     0.15635    3.64059    0.17253   -1.83126    0    0    0
      19        2        1     0.14217    4.71250    1.53883   -1.77568    0    0    0
      20        2        4    -0.13058    2.45007    2.70203   -2.48977    0    0    0
      21        2        1     0.13451    2.87036    2.74414   -0.40159    0    0    0
      22        2        1     0.10549    1.79311    1.45222   -0.89802    0    0    0
      23        3        3    -0.29045    0.96409   -2.06960    1.46517    0    0    0
      24        3        3    -0.10770    0.10896   -1.28793    0.43485    0    0    0
      25        3        1     0.13697    0.29727   -2.69934    2.05954    0    0    0
      26        3        1     0.14336    1.61493   -2.75441    0.91833    0    0    0
      27        3        4    -0.41671   -0.86518   -2.19362   -0.21628    0    0    0
      28        3        1     0.13858    0.76833   -0.85979   -0.32242    0    0    0
      29        3        1     0.10679   -0.41597   -0.47566    0.93711    0    0    0
      30        3        2     0.28916   -1.57130   -2.45303    0.47475    0    0    0
      31        4        3    -0.30953   -1.56019   -1.66536   -1.41310    0    0    0
      32        4        3    -0.10261   -2.59976   -0.54422   -1.14936    0    0    0
      33        4        1     0.15635   -0.81706   -1.31254   -2.13116    0    0    0
      34        4        1     0.14637   -2.07508   -2.50577   -1.88301    0    0    0
      35        4        4    -0.13058   -3.82584   -1.08534   -0.47193    0    0    0
      36        4        1     0.13451   -2.84717   -0.11062   -2.12168    0    0    0
      37        4        1     0.10549   -2.15170    0.26840   -0.57240    0    0    0
      38        5        3    -0.29045    1.40343   -1.10502    3.79850    0    0    0
      39        5        3    -0.10770    0.22722   -0.12794    4.05166    0    0    0
      40        5        1     0.13697    1.14819   -2.08855    4.20061    0    0    0
      41        5        1     0.14336    2.26069   -0.76493    4.38497    0    0    0
      42        5        4    -0.41671   -1.07893   -0.74752    3.80475    0    0    0
      43        5        1     0.13858    0.32543    0.76047    3.42614    0    0    0
      44        5        1     0.10679    0.24163    0.19058    5.09615    0    0    0
      45        5        2     0.28916   -1.14218   -1.56758    4.41230    0    0    0
      46        6        3    -0.27406   -5.13489   -0.75173   -1.12753    0    0    0
      47        6        3    -0.12755   -5.48803   -1.74320   -2.26181    0    0    0
      48        6        1     0.13574   -5.12762    0.27155   -1.51334    0    0    0
      49        6        1     0.13985   -5.95531   -0.80074   -0.40720    0    0    0
      50        6        4    -0.70870   -4.59974   -1.62231   -3.42187    0    0    0
      51        6        1     0.11144   -6.50938   -1.55626   -2.60043    0    0    0
      52        6        1     0.14044   -5.43382   -2.76628   -1.88460    0    0    0
      53        6        2     0.28937   -4.72756   -0.68166   -3.80128    0    0    0
      54        6        2     0.29347   -4.94030   -2.27619   -4.12994    0    0    0
      55        7        3    -0.27406   -3.82077   -1.00666    1.02508    0    0    0
      56        7        3    -0.12755   -4.48289   -2.24008    1.68326    0    0    0
      57        7        1     0.13574   -2.80274   -0.95221    1.41260    0    0    0
      58        7        1     0.13985   -4.33096   -0.09727    1.35480    0    0    0
      59        7        4    -0.70870   -3.79486   -3.47888    1.30402    0    0    0
      60        7        1     0.11144   -5.53181   -2.31702    1.39482    0    0    0
      61        7        1     0.14044   -4.43491   -2.14004    2.76951    0    0    0
      62        7        2     0.28937   -3.91821   -3.59474    0.29582    0    0    0
      63        7        2     0.29347   -4.29557   -4.24862    1.75325    0    0    0
      64        8        3    -0.29815    2.17292    4.17324   -2.46902    0    0    0
      65        8        3    -0.12755    0.75398    4.60547   -2.02213    0    0    0
      66        8        1     0.15983    2.90097    4.65684   -1.81237    0    0    0
      67        8        1     0.13985    2.35158    4.58487   -3.46567    0    0    0
      68        8        4    -0.70870    0.40588    4.12850   -0.68029    0    0    0
      69        8        1     0.11144    0.00635    4.25418   -2.73182    0    0    0
      70        8        1     0.14044    0.70897    5.69691   -2.00857    0    0    0
      71        8        2     0.28937    0.28362    3.11620   -0.74468    0    0    0
      72        8        2     0.29347   -0.50979    4.52113   -0.45157    0    0    0
      73        9        3    -0.29404    2.01409    1.90083   -3.67823    0    0    0
      74        9        3    -0.12755    0.58600    1.30998   -3.59583    0    0    0
      75        9        1     0.13574    2.08120    2.51640   -4.57855    0    0    0
      76        9        1     0.15983    2.71820    1.07869   -3.82412    0    0    0
      77        9        4    -0.70870    0.30386    0.47558   -4.76892    0    0    0
      78        9        1     0.11144   -0.15886    2.10403   -3.55676    0    0    0
      79        9        1     0.14044    0.48468    0.69022   -2.70628    0    0    0
      80        9        2     0.28937    0.33276    1.08871   -5.58681    0    0    0
      81        9        2     0.29347   -0.66082    0.14793   -4.67823    0    0    0
      82       10        3    -0.29815    0.17077   -1.32943    2.87154    0    0    0
      83       10        3    -0.12755   -1.12798   -0.53071    2.78987    0    0    0
      84       10        1     0.15983    0.22242   -1.87716    3.81805    0    0    0
      85       10        1     0.13985    1.04333   -0.67058    2.79602    0    0    0
      86       10        4    -0.70870   -2.28542   -1.41678    2.96515    0    0    0
      87       10        1     0.11144   -1.14207    0.04434    1.84527    0    0    0
      88       10        1     0.14044   -1.15293    0.20699    3.60219    0    0    0
      89       10        2     0.28937   -2.33290   -2.07036    2.18336    0    0    0
      90       10        2     0.29347   -3.14616   -0.87268    2.92525    0    0    0


Bonds

       1        4        1        3 
       2        4        1        4 
       3        4        1        5 
       4        3        1        2 
       5        1        2        6 
       6        4        2        7 
       7        4        2        8 
       8        1        6        9 
       9        1        6       16 
      10        4        9       11 
      11        4        9       12 
      12        3        9       10 
      13        1       10       13 
      14        4       10       14 
      15        4       10       15 
      16        1       13       23 
      17        1       13       38 
      18        4       16       18 
      19        4       16       19 
      20        3       16       17 
      21        1       17       20 
      22        4       17       21 
      23        4       17       22 
      24        1       20       64 
      25        1       20       73 
      26        3       23       24 
      27        4       23       26 
      28        4       23       25 
      29        4       24       28 
      30        1       24       27 
      31        4       24       29 
      32        2       27       30 
      33        1       27       31 
      34        4       31       33 
      35        4       31       34 
      36        3       31       32 
      37        1       32       35 
      38        4       32       36 
      39        4       32       37 
      40        1       35       46 
      41        1       35       55 
      42        3       38       39 
      43        4       38       41 
      44        4       38       40 
      45        4       39       43 
      46        1       39       42 
      47        4       39       44 
      48        2       42       45 
      49        1       42       82 
      50        4       46       48 
      51        3       46       47 
      52        4       46       49 
      53        4       47       51 
      54        1       47       50 
      55        4       47       52 
      56        2       50       53 
      57        2       50       54 
      58        4       55       57 
      59        3       55       56 
      60        4       55       58 
      61        4       56       60 
      62        1       56       59 
      63        4       56       61 
      64        2       59       62 
      65        2       59       63 
      66        3       64       65 
      67        4       64       67 
      68        4       64       66 
      69        4       65       69 
      70        1       65       68 
      71        4       65       70 
      72        2       68       71 
      73        2       68       72 
      74        4       73       75 
      75        3       73       74 
      76        4       73       76 
      77        4       74       78 
      78        1       74       77 
      79        4       74       79 
      80        2       77       80 
      81        2       77       81 
      82        3       82       83 
      83        4       82       85 
      84        4       82       84 
      85        4       83       87 
      86        1       83       86 
      87        4       83       88 
      88        2       86       89 
      89        2       86       90 

Angles

       1        1        2        6       16 
       2        2        3        1        2 
       3        2        4        1        3 
       4        2        4        1        2 
       5        2        5        1        3 
       6        2        5        1        4 
       7        2        5        1        2 
       8        2        6        2        1 
       9        2        6        9       11 
      10        2        6        9       12 
      11        2        6        9       10 
      12        2        6       16       18 
      13        2        6       16       19 
      14        2        6       16       17 
      15        2        7        2        6 
      16        2        7        2        1 
      17        2        8        2        6 
      18        2        8        2        1 
      19        2        8        2        7 
      20        2        9       10       13 
      21        2        9       10       14 
      22        2        9       10       15 
      23        1        9        6        2 
      24        1        9        6       16 
      25        2       11        9       10 
      26        2       12        9       11 
      27        2       12        9       10 
      28        2       14       10       13 
      29        2       15       10       13 
      30        2       15       10       14 
      31        2       18       16       17 
      32        2       19       16       18 
      33        2       19       16       17 
      34        2       20       17       16 
      35        2       21       17       20 
      36        2       21       17       16 
      37        2       22       17       20 
      38        2       22       17       16 
      39        2       22       17       21 
      40        1       23       13       10 
      41        2       24       23       13 
      42        2       25       23       24 
      43        2       25       23       13 
      44        2       26       23       24 
      45        2       26       23       25 
      46        2       26       23       13 
      47        2       27       24       23 
      48        2       28       24       27 
      49        2       28       24       23 
      50        2       29       24       28 
      51        2       29       24       27 
      52        2       29       24       23 
      53        1       30       27       24 
      54        1       31       27       24 
      55        1       31       27       30 
      56        2       32       31       27 
      57        2       33       31       32 
      58        2       33       31       27 
      59        2       34       31       33 
      60        2       34       31       32 
      61        2       34       31       27 
      62        2       35       32       31 
      63        2       36       32       35 
      64        2       36       32       31 
      65        2       37       32       35 
      66        2       37       32       31 
      67        2       37       32       36 
      68        1       38       13       10 
      69        1       38       13       23 
      70        2       39       38       13 
      71        2       40       38       39 
      72        2       40       38       13 
      73        2       41       38       39 
      74        2       41       38       40 
      75        2       41       38       13 
      76        2       42       39       38 
      77        2       43       39       42 
      78        2       43       39       38 
      79        2       44       39       43 
      80        2       44       39       42 
      81        2       44       39       38 
      82        1       45       42       39 
      83        1       46       35       32 
      84        2       47       46       35 
      85        2       48       46       47 
      86        2       48       46       35 
      87        2       49       46       48 
      88        2       49       46       47 
      89        2       49       46       35 
      90        2       50       47       46 
      91        2       51       47       46 
      92        2       51       47       50 
      93        2       52       47       51 
      94        2       52       47       46 
      95        2       52       47       50 
      96        1       53       50       47 
      97        1       54       50       53 
      98        1       54       50       47 
      99        1       55       35       32 
     100        1       55       35       46 
     101        2       56       55       35 
     102        2       57       55       56 
     103        2       57       55       35 
     104        2       58       55       57 
     105        2       58       55       56 
     106        2       58       55       35 
     107        2       59       56       55 
     108        2       60       56       55 
     109        2       60       56       59 
     110        2       61       56       60 
     111        2       61       56       55 
     112        2       61       56       59 
     113        1       62       59       56 
     114        1       63       59       62 
     115        1       63       59       56 
     116        1       64       20       17 
     117        2       65       64       20 
     118        2       66       64       65 
     119        2       66       64       20 
     120        2       67       64       65 
     121        2       67       64       66 
     122        2       67       64       20 
     123        2       68       65       64 
     124        2       69       65       64 
     125        2       69       65       68 
     126        2       70       65       69 
     127        2       70       65       64 
     128        2       70       65       68 
     129        1       71       68       65 
     130        1       72       68       71 
     131        1       72       68       65 
     132        1       73       20       17 
     133        1       73       20       64 
     134        2       74       73       20 
     135        2       75       73       74 
     136        2       75       73       20 
     137        2       76       73       75 
     138        2       76       73       74 
     139        2       76       73       20 
     140        2       77       74       73 
     141        2       78       74       73 
     142        2       78       74       77 
     143        2       79       74       78 
     144        2       79       74       73 
     145        2       79       74       77 
     146        1       80       77       74 
     147        1       81       77       80 
     148        1       81       77       74 
     149        1       82       42       39 
     150        1       82       42       45 
     151        2       83       82       42 
     152        2       84       82       83 
     153        2       84       82       42 
     154        2       85       82       83 
     155        2       85       82       84 
     156        2       85       82       42 
     157        2       86       83       82 
     158        2       87       83       82 
     159        2       87       83       86 
     160        2       88       83       87 
     161        2       88       83       82 
     162        2       88       83       86 
     163        1       89       86       83 
     164        1       90       86       89 
     165        1       90       86       83 

Dihedrals

       1        1        2        6        9       11 
       2        1        2        6        9       12 
       3        1        2        6        9       10 
       4        1        2        6       16       18 
       5        1        2        6       16       19 
       6        1        2        6       16       17 
       7        2        6        2        1        3 
       8        2        6        2        1        4 
       9        2        6        2        1        5 
      10        2        6        9       10       13 
      11        2        6        9       10       14 
      12        2        6        9       10       15 
      13        2        6       16       17       20 
      14        2        6       16       17       21 
      15        2        6       16       17       22 
      16        1        7        2        6       16 
      17        2        7        2        1        3 
      18        2        7        2        1        4 
      19        2        7        2        1        5 
      20        1        8        2        6       16 
      21        2        8        2        1        3 
      22        2        8        2        1        4 
      23        2        8        2        1        5 
      24        1        9       10       13       23 
      25        1        9       10       13       38 
      26        1        9        6        2        1 
      27        1        9        6        2        7 
      28        1        9        6        2        8 
      29        1        9        6       16       18 
      30        1        9        6       16       19 
      31        1        9        6       16       17 
      32        2       13       10        9       11 
      33        2       13       10        9       12 
      34        2       14       10        9       11 
      35        2       14       10        9       12 
      36        2       15       10        9       11 
      37        2       15       10        9       12 
      38        1       16        6        2        1 
      39        1       16        6        9       11 
      40        1       16        6        9       12 
      41        1       16        6        9       10 
      42        2       20       17       16       18 
      43        2       20       17       16       19 
      44        2       21       17       16       18 
      45        2       21       17       16       19 
      46        2       22       17       16       18 
      47        2       22       17       16       19 
      48        1       23       13       10       14 
      49        1       23       13       10       15 
      50        1       24       23       13       10 
      51        1       25       23       13       10 
      52        1       26       23       13       10 
      53        2       27       24       23       26 
      54        2       27       24       23       25 
      55        2       27       24       23       13 
      56        2       28       24       23       26 
      57        2       28       24       23       25 
      58        2       28       24       23       13 
      59        2       29       24       23       26 
      60        2       29       24       23       25 
      61        2       29       24       23       13 
      62        1       30       27       24       28 
      63        1       30       27       24       23 
      64        1       30       27       24       29 
      65        1       31       27       24       28 
      66        1       31       27       24       23 
      67        1       31       27       24       29 
      68        1       32       31       27       24 
      69        1       32       31       27       30 
      70        1       33       31       27       24 
      71        1       33       31       27       30 
      72        1       34       31       27       24 
      73        1       34       31       27       30 
      74        2       35       32       31       33 
      75        2       35       32       31       34 
      76        2       35       32       31       27 
      77        2       36       32       31       33 
      78        2       36       32       31       34 
      79        2       36       32       31       27 
      80        2       37       32       31       33 
      81        2       37       32       31       34 
      82        2       37       32       31       27 
      83        1       38       13       10       14 
      84        1       38       13       10       15 
      85        1       38       13       23       24 
      86        1       38       13       23       26 
      87        1       38       13       23       25 
      88        1       39       38       13       10 
      89        1       39       38       13       23 
      90        1       40       38       13       10 
      91        1       40       38       13       23 
      92        1       41       38       13       10 
      93        1       41       38       13       23 
      94        2       42       39       38       41 
      95        2       42       39       38       40 
      96        2       42       39       38       13 
      97        2       43       39       38       41 
      98        2       43       39       38       40 
      99        2       43       39       38       13 
     100        2       44       39       38       41 
     101        2       44       39       38       40 
     102        2       44       39       38       13 
     103        1       45       42       39       43 
     104        1       45       42       39       38 
     105        1       45       42       39       44 
     106        1       46       35       32       31 
     107        1       46       35       32       36 
     108        1       46       35       32       37 
     109        1       47       46       35       32 
     110        1       48       46       35       32 
     111        1       49       46       35       32 
     112        2       50       47       46       48 
     113        2       50       47       46       49 
     114        2       50       47       46       35 
     115        2       51       47       46       48 
     116        2       51       47       46       49 
     117        2       51       47       46       35 
     118        2       52       47       46       48 
     119        2       52       47       46       49 
     120        2       52       47       46       35 
     121        1       53       50       47       51 
     122        1       53       50       47       46 
     123        1       53       50       47       52 
     124        1       54       50       47       51 
     125        1       54       50       47       46 
     126        1       54       50       47       52 
     127        1       55       35       32       31 
     128        1       55       35       32       36 
     129        1       55       35       32       37 
     130        1       55       35       46       48 
     131        1       55       35       46       47 
     132        1       55       35       46       49 
     133        1       56       55       35       32 
     134        1       56       55       35       46 
     135        1       57       55       35       32 
     136        1       57       55       35       46 
     137        1       58       55       35       32 
     138        1       58       55       35       46 
     139        2       59       56       55       57 
     140        2       59       56       55       58 
     141        2       59       56       55       35 
     142        2       60       56       55       57 
     143        2       60       56       55       58 
     144        2       60       56       55       35 
     145        2       61       56       55       57 
     146        2       61       56       55       58 
     147        2       61       56       55       35 
     148        1       62       59       56       60 
     149        1       62       59       56       55 
     150        1       62       59       56       61 
     151        1       63       59       56       60 
     152        1       63       59       56       55 
     153        1       63       59       56       61 
     154        1       64       20       17       16 
     155        1       64       20       17       21 
     156        1       64       20       17       22 
     157        1       65       64       20       17 
     158        1       66       64       20       17 
     159        1       67       64       20       17 
     160        2       68       65       64       67 
     161        2       68       65       64       66 
     162        2       68       65       64       20 
     163        2       69       65       64       67 
     164        2       69       65       64       66 
     165        2       69       65       64       20 
     166        2       70       65       64       67 
     167        2       70       65       64       66 
     168        2       70       65       64       20 
     169        1       71       68       65       69 
     170        1       71       68       65       64 
     171        1       71       68       65       70 
     172        1       72       68       65       69 
     173        1       72       68       65       64 
     174        1       72       68       65       70 
     175        1       73       20       17       16 
     176        1       73       20       17       21 
     177        1       73       20       17       22 
     178        1       73       20       64       65 
     179        1       73       20       64       67 
     180        1       73       20       64       66 
     181        1       74       73       20       17 