Created by /home/tpascal/scripts/createLammpsInput.pl on Thu Nov 26 12:10:56 2015

          42 atoms
          41 bonds
          75 angles
          99 dihedrals
           0 impropers

           4 atom types
           4 bond types
           2 angle types
           2 dihedral types
           0 improper types

           -50.000000  50.000000 xlo xhi
           -50.000000  50.000000 ylo yhi
           -50.000000  50.000000 zlo zhi

Masses

    1   1.0080 # H_     
    2   1.0080 # H___A  
    3  12.0110 # C_3    
    4  14.0067 # N_3    

Pair Coeffs

    1      0.01520000      2.84642140 
    2      0.00010000      2.84642140 
    3      0.09510000      3.47299047 
    4      0.07740000      3.26256020                 

Bond Coeffs

    1             350           1.462 # N_3 C_3 
    2             350           1.022 # N_3 H___A 
    3             350            1.53 # C_3 C_3 
    4             350            1.09 # C_3 H_                 

Angle Coeffs

    1              50           106.7 # X N_3 X 
    2              50         109.471 # X C_3 X                 

Dihedral Coeffs

    1        0.166667               3               0 0 # X N_3 C_3 X 
    2        0.111111               3               0 0 # X C_3 C_3 X 

Atoms

       1        0        3    -0.45170    4.24529    2.35679    0.40349    0    0    0
       2        0        3    -0.10261    2.75357    2.33610    0.79438    0    0    0
       3        0        1     0.15635    4.35220    2.52543   -0.66957    0    0    0
       4        0        1     0.14637    4.71931    1.40853    0.66230    0    0    0
       5        0        1     0.14217    4.75723    3.15996    0.93703    0    0    0
       6        0        4    -0.13058    2.02186    1.25904    0.06917    0    0    0
       7        0        1     0.13451    2.32110    3.31360    0.56997    0    0    0
       8        0        1     0.10549    2.67185    2.18922    1.87407    0    0    0
       9        1        3    -0.30533    1.91849   -0.10045    0.67885    0    0    0
      10        1        3    -0.10261    0.85132   -0.18107    1.80365    0    0    0
      11        1        1     0.15635    1.69744   -0.82666   -0.10273    0    0    0
      12        1        1     0.14217    2.88798   -0.38841    1.09318    0    0    0
      13        1        4    -0.24559    0.34103   -1.54362    2.09101    0    0    0
      14        1        1     0.13451    0.01013    0.47350    1.58803    0    0    0
      15        1        1     0.10549    1.30044    0.18996    2.72696    0    0    0
      16        1        2     0.11501   -0.27933   -1.45020    2.89858    0    0    0
      17        2        3    -0.30533    1.24725    1.58949   -1.16616    0    0    0
      18        2        3    -0.10261   -0.05844    2.37760   -0.89585    0    0    0
      19        2        1     0.15635    1.00087    0.67072   -1.70406    0    0    0
      20        2        1     0.14217    1.88100    2.17884   -1.83341    0    0    0
      21        2        4    -0.35950   -0.96239    2.31200   -2.04901    0    0    0
      22        2        1     0.13451    0.17024    3.42537   -0.69361    0    0    0
      23        2        1     0.10549   -0.58760    1.96998   -0.03728    0    0    0
      24        2        2     0.11501   -1.81936    2.80190   -1.78273    0    0    0
      25        2        2     0.11391   -1.21543    1.32817   -2.16947    0    0    0
      26        3        3    -0.29045   -0.44179   -2.25073    1.04326    0    0    0
      27        3        3    -0.10770   -1.58154   -1.43099    0.38936    0    0    0
      28        3        1     0.13697   -0.87944   -3.12610    1.52748    0    0    0
      29        3        1     0.14336    0.23229   -2.61874    0.26763    0    0    0
      30        3        4    -0.41671   -2.45984   -2.28862   -0.41236    0    0    0
      31        3        1     0.13858   -1.16045   -0.67237   -0.27241    0    0    0
      32        3        1     0.10679   -2.18006   -0.93822    1.15774    0    0    0
      33        3        2     0.28916   -2.94756   -2.90741    0.23903    0    0    0
      34        4        3    -0.30953   -1.12426   -1.65562   -0.98700    0    0    0
      35        4        3    -0.10261   -2.45321   -1.05944   -0.52091    0    0    0
      36        4        1     0.15635   -1.06434   -1.64480   -2.08055    0    0    0
      37        4        1     0.14637   -0.98626   -2.68720   -0.64651    0    0    0
      38        4        4    -0.35950   -3.62429   -1.67712   -1.14547    0    0    0
      39        4        1     0.13451   -2.47087    0.00441   -0.78833    0    0    0
      40        4        1     0.10549   -2.51392   -1.10366    0.58706    0    0    0
      41        4        2     0.11501   -4.82640   -0.89351   -0.89766    0    0    0
      42        4        2     0.11391   -3.81840   -3.06147   -0.73505    0    0    0


Bonds

       1        4        1        3 
       2        4        1        4 
       3        4        1        5 
       4        3        1        2 
       5        1        2        6 
       6        4        2        7 
       7        4        2        8 
       8        1        6        9 
       9        1        6       17 
      10        4        9       11 
      11        4        9       12 
      12        3        9       10 
      13        1       10       13 
      14        4       10       14 
      15        4       10       15 
      16        2       13       16 
      17        1       13       26 
      18        4       17       19 
      19        4       17       20 
      20        3       17       18 
      21        1       18       21 
      22        4       18       22 
      23        4       18       23 
      24        2       21       24 
      25        2       21       25 
      26        3       26       27 
      27        4       26       29 
      28        4       26       28 
      29        4       27       31 
      30        1       27       30 
      31        4       27       32 
      32        2       30       33 
      33        1       30       34 
      34        4       34       36 
      35        4       34       37 
      36        3       34       35 
      37        1       35       38 
      38        4       35       39 
      39        4       35       40 
      40        2       38       41 
      41        2       38       42 

Angles

       1        1        2        6       17 
       2        2        3        1        2 
       3        2        4        1        3 
       4        2        4        1        2 
       5        2        5        1        3 
       6        2        5        1        4 
       7        2        5        1        2 
       8        2        6        2        1 
       9        2        6        9       11 
      10        2        6        9       12 
      11        2        6        9       10 
      12        2        6       17       19 
      13        2        6       17       20 
      14        2        6       17       18 
      15        2        7        2        6 
      16        2        7        2        1 
      17        2        8        2        6 
      18        2        8        2        1 
      19        2        8        2        7 
      20        2        9       10       13 
      21        2        9       10       14 
      22        2        9       10       15 
      23        1        9        6        2 
      24        1        9        6       17 
      25        2       11        9       10 
      26        2       12        9       11 
      27        2       12        9       10 
      28        2       14       10       13 
      29        2       15       10       13 
      30        2       15       10       14 
      31        1       16       13       10 
      32        2       19       17       18 
      33        2       20       17       19 
      34        2       20       17       18 
      35        2       21       18       17 
      36        2       22       18       21 
      37        2       22       18       17 
      38        2       23       18       21 
      39        2       23       18       17 
      40        2       23       18       22 
      41        1       24       21       18 
      42        1       25       21       24 
      43        1       25       21       18 
      44        1       26       13       16 
      45        1       26       13       10 
      46        2       27       26       13 
      47        2       28       26       27 
      48        2       28       26       13 
      49        2       29       26       27 
      50        2       29       26       28 
      51        2       29       26       13 
      52        2       30       27       26 
      53        2       31       27       30 
      54        2       31       27       26 
      55        2       32       27       31 
      56        2       32       27       30 
      57        2       32       27       26 
      58        1       33       30       27 
      59        1       34       30       27 
      60        1       34       30       33 
      61        2       35       34       30 
      62        2       36       34       35 
      63        2       36       34       30 
      64        2       37       34       36 
      65        2       37       34       35 
      66        2       37       34       30 
      67        2       38       35       34 
      68        2       39       35       38 
      69        2       39       35       34 
      70        2       40       35       38 
      71        2       40       35       34 
      72        2       40       35       39 
      73        1       41       38       35 
      74        1       42       38       41 
      75        1       42       38       35 

Dihedrals

       1        1        2        6        9       11 
       2        1        2        6        9       12 
       3        1        2        6        9       10 
       4        1        2        6       17       19 
       5        1        2        6       17       20 
       6        1        2        6       17       18 
       7        2        6        2        1        3 
       8        2        6        2        1        4 
       9        2        6        2        1        5 
      10        2        6        9       10       13 
      11        2        6        9       10       14 
      12        2        6        9       10       15 
      13        2        6       17       18       21 
      14        2        6       17       18       22 
      15        2        6       17       18       23 
      16        1        7        2        6       17 
      17        2        7        2        1        3 
      18        2        7        2        1        4 
      19        2        7        2        1        5 
      20        1        8        2        6       17 
      21        2        8        2        1        3 
      22        2        8        2        1        4 
      23        2        8        2        1        5 
      24        1        9       10       13       16 
      25        1        9       10       13       26 
      26        1        9        6        2        1 
      27        1        9        6        2        7 
      28        1        9        6        2        8 
      29        1        9        6       17       19 
      30        1        9        6       17       20 
      31        1        9        6       17       18 
      32        2       13       10        9       11 
      33        2       13       10        9       12 
      34        2       14       10        9       11 
      35        2       14       10        9       12 
      36        2       15       10        9       11 
      37        2       15       10        9       12 
      38        1       16       13       10       14 
      39        1       16       13       10       15 
      40        1       17        6        2        1 
      41        1       17        6        9       11 
      42        1       17        6        9       12 
      43        1       17        6        9       10 
      44        2       21       18       17       19 
      45        2       21       18       17       20 
      46        2       22       18       17       19 
      47        2       22       18       17       20 
      48        2       23       18       17       19 
      49        2       23       18       17       20 
      50        1       24       21       18       17 
      51        1       24       21       18       22 
      52        1       24       21       18       23 
      53        1       25       21       18       17 
      54        1       25       21       18       22 
      55        1       25       21       18       23 
      56        1       26       13       10       14 
      57        1       26       13       10       15 
      58        1       27       26       13       16 
      59        1       27       26       13       10 
      60        1       28       26       13       16 
      61        1       28       26       13       10 
      62        1       29       26       13       16 
      63        1       29       26       13       10 
      64        2       30       27       26       29 
      65        2       30       27       26       28 
      66        2       30       27       26       13 
      67        2       31       27       26       29 
      68        2       31       27       26       28 
      69        2       31       27       26       13 
      70        2       32       27       26       29 
      71        2       32       27       26       28 
      72        2       32       27       26       13 
      73        1       33       30       27       31 
      74        1       33       30       27       26 
      75        1       33       30       27       32 
      76        1       34       30       27       31 
      77        1       34       30       27       26 
      78        1       34       30       27       32 
      79        1       35       34       30       27 
      80        1       35       34       30       33 
      81        1       36       34       30       27 
      82        1       36       34       30       33 
      83        1       37       34       30       27 
      84        1       37       34       30       33 
      85        2       38       35       34       36 
      86        2       38       35       34       37 
      87        2       38       35       34       30 
      88        2       39       35       34       36 
      89        2       39       35       34       37 
      90        2       39       35       34       30 
      91        2       40       35       34       36 
      92        2       40       35       34       37 
      93        2       40       35       34       30 
      94        1       41       38       35       34 
      95        1       41       38       35       39 
      96        1       41       38       35       40 
      97        1       42       38       35       34 
      98        1       42       38       35       39 
      99        1       42       38       35       40 



