Created by /home/tpascal/scripts/createLammpsInput.pl on Thu Nov 26 12:10:58 2015

          66 atoms
          65 bonds
         120 angles
         162 dihedrals
           0 impropers

           4 atom types
           4 bond types
           2 angle types
           2 dihedral types
           0 improper types

           -50.000000  50.000000 xlo xhi
           -50.000000  50.000000 ylo yhi
           -50.000000  50.000000 zlo zhi

Masses

    1   1.0080 # H_     
    2   1.0080 # H___A  
    3  12.0110 # C_3    
    4  14.0067 # N_3    

Pair Coeffs

    1      0.01520000      2.84642140 
    2      0.00010000      2.84642140 
    3      0.09510000      3.47299047 
    4      0.07740000      3.26256020                 

Bond Coeffs

    1             350           1.462 # N_3 C_3 
    2             350           1.022 # N_3 H___A 
    3             350            1.53 # C_3 C_3 
    4             350            1.09 # C_3 H_                 

Angle Coeffs

    1              50           106.7 # X N_3 X 
    2              50         109.471 # X C_3 X                 

Dihedral Coeffs

    1        0.166667               3               0 0 # X N_3 C_3 X 
    2        0.111111               3               0 0 # X C_3 C_3 X 

Atoms

       1        0        3    -0.45170    5.53648    3.04960   -0.07587    0    0    0
       2        0        3    -0.10261    4.03526    3.09157    0.27499    0    0    0
       3        0        1     0.15635    5.67125    3.08833   -1.15835    0    0    0
       4        0        1     0.14637    5.99321    2.13570    0.30672    0    0    0
       5        0        1     0.14217    6.04530    3.90549    0.37187    0    0    0
       6        0        4    -0.13058    3.28874    1.97745   -0.38109    0    0    0
       7        0        1     0.13451    3.63884    4.05944   -0.04258    0    0    0
       8        0        1     0.10549    3.92114    3.04576    1.35896    0    0    0
       9        1        3    -0.30533    3.27631    0.61561    0.23435    0    0    0
      10        1        3    -0.10261    2.49754    0.52680    1.57512    0    0    0
      11        1        1     0.15635    2.85513   -0.09221   -0.47928    0    0    0
      12        1        1     0.14217    4.30568    0.29637    0.41132    0    0    0
      13        1        4    -0.13058    2.26846   -0.88088    2.03827    0    0    0
      14        1        1     0.13451    1.54309    1.04638    1.49520    0    0    0
      15        1        1     0.10549    3.08060    1.06865    2.32280    0    0    0
      16        2        3    -0.30533    2.37581    2.28931   -1.52155    0    0    0
      17        2        3    -0.10261    0.99639    2.81584   -1.06605    0    0    0
      18        2        1     0.15635    2.23011    1.39999   -2.14006    0    0    0
      19        2        1     0.14217    2.84811    3.03919   -2.16168    0    0    0
      20        2        4    -0.35950    0.14558    3.10892   -2.22408    0    0    0
      21        2        1     0.13451    1.11680    3.73053   -0.48338    0    0    0
      22        2        1     0.10549    0.49155    2.07244   -0.45046    0    0    0
      23        2        2     0.11501   -0.75914    3.41543   -1.86008    0    0    0
      24        2        2     0.11391   -0.01595    2.22319   -2.70863    0    0    0
      25        3        3    -0.29045    1.42700   -1.81142    1.21324    0    0    0
      26        3        3    -0.10770    0.07836   -1.24145    0.70220    0    0    0
      27        3        1     0.13697    1.21355   -2.72579    1.77277    0    0    0
      28        3        1     0.14336    2.02136   -2.11963    0.35139    0    0    0
      29        3        4    -0.41671   -0.65408   -2.25025   -0.09918    0    0    0
      30        3        1     0.13858    0.24527   -0.33333    0.12532    0    0    0
      31        3        1     0.10679   -0.54760   -0.97771    1.55285    0    0    0
      32        3        2     0.28916   -1.64354   -2.18558    0.14767    0    0    0
      33        4        3    -0.30953   -0.56594   -2.12352   -1.57447    0    0    0
      34        4        3    -0.10261   -1.43874   -0.98663   -2.16192    0    0    0
      35        4        1     0.15635    0.47445   -1.98521   -1.88130    0    0    0
      36        4        1     0.14637   -0.90893   -3.06916   -1.99842    0    0    0
      37        4        4    -0.13058   -2.83642   -1.08840   -1.68534    0    0    0
      38        4        1     0.13451   -1.40988   -1.05539   -3.25258    0    0    0
      39        4        1     0.10549   -1.02617   -0.01806   -1.87158    0    0    0
      40        5        3    -0.29045    2.40186   -1.14815    3.50564    0    0    0
      41        5        3    -0.10770    1.28296   -0.55220    4.39663    0    0    0
      42        5        1     0.13697    2.47420   -2.22303    3.68933    0    0    0
      43        5        1     0.14336    3.35597   -0.72951    3.83698    0    0    0
      44        5        4    -0.53171    0.06094   -1.36227    4.39268    0    0    0
      45        5        1     0.13858    1.03930    0.46293    4.07993    0    0    0
      46        5        1     0.10679    1.63594   -0.50805    5.42920    0    0    0
      47        5        2     0.11500   -0.29057   -1.38417    3.43757    0    0    0
      48        5        2     0.28916    0.33059   -2.31845    4.63229    0    0    0
      49        6        3    -0.27406   -3.77552   -0.14422   -2.33273    0    0    0
      50        6        3    -0.12755   -5.10346   -0.06680   -1.54992    0    0    0
      51        6        1     0.13574   -3.97454   -0.47758   -3.35444    0    0    0
      52        6        1     0.13985   -3.34423    0.86013   -2.37255    0    0    0
      53        6        4    -0.70870   -5.76848   -1.37147   -1.46697    0    0    0
      54        6        1     0.11144   -5.77747    0.63649   -2.04369    0    0    0
      55        6        1     0.14044   -4.91184    0.29273   -0.53678    0    0    0
      56        6        2     0.28937   -6.02982   -1.63708   -2.41866    0    0    0
      57        6        2     0.29347   -6.63939   -1.22771   -0.95087    0    0    0
      58        7        3    -0.27406   -1.57230   -1.09852   -0.66186    0    0    0
      59        7        3    -0.12755   -2.87105   -0.29980   -0.74353    0    0    0
      60        7        1     0.13574   -1.50791   -1.83000   -1.47813    0    0    0
      61        7        1     0.13985   -0.69974   -0.43967   -0.73738    0    0    0
      62        7        4    -0.70870   -4.02849   -1.18587   -0.56825    0    0    0
      63        7        1     0.11144   -2.88514    0.27525   -1.68813    0    0    0
      64        7        1     0.14044   -2.89600    0.43790    0.06879    0    0    0
      65        7        2     0.28937   -4.07597   -1.83945   -1.35004    0    0    0
      66        7        2     0.29347   -4.88923   -0.64177   -0.60815    0    0    0


Bonds

       1        4        1        3 
       2        4        1        4 
       3        4        1        5 
       4        3        1        2 
       5        1        2        6 
       6        4        2        7 
       7        4        2        8 
       8        1        6        9 
       9        1        6       16 
      10        4        9       11 
      11        4        9       12 
      12        3        9       10 
      13        1       10       13 
      14        4       10       14 
      15        4       10       15 
      16        1       13       25 
      17        1       13       40 
      18        4       16       18 
      19        4       16       19 
      20        3       16       17 
      21        1       17       20 
      22        4       17       21 
      23        4       17       22 
      24        2       20       23 
      25        2       20       24 
      26        3       25       26 
      27        4       25       28 
      28        4       25       27 
      29        4       26       30 
      30        1       26       29 
      31        4       26       31 
      32        2       29       32 
      33        1       29       33 
      34        4       33       35 
      35        4       33       36 
      36        3       33       34 
      37        1       34       37 
      38        4       34       38 
      39        4       34       39 
      40        1       37       49 
      41        1       37       58 
      42        3       40       41 
      43        4       40       43 
      44        4       40       42 
      45        4       41       45 
      46        1       41       44 
      47        4       41       46 
      48        2       44       47 
      49        2       44       48 
      50        4       49       51 
      51        3       49       50 
      52        4       49       52 
      53        4       50       54 
      54        1       50       53 
      55        4       50       55 
      56        2       53       56 
      57        2       53       57 
      58        4       58       60 
      59        3       58       59 
      60        4       58       61 
      61        4       59       63 
      62        1       59       62 
      63        4       59       64 
      64        2       62       65 
      65        2       62       66 

Angles

       1        1        2        6       16 
       2        2        3        1        2 
       3        2        4        1        3 
       4        2        4        1        2 
       5        2        5        1        3 
       6        2        5        1        4 
       7        2        5        1        2 
       8        2        6        2        1 
       9        2        6        9       11 
      10        2        6        9       12 
      11        2        6        9       10 
      12        2        6       16       18 
      13        2        6       16       19 
      14        2        6       16       17 
      15        2        7        2        6 
      16        2        7        2        1 
      17        2        8        2        6 
      18        2        8        2        1 
      19        2        8        2        7 
      20        2        9       10       13 
      21        2        9       10       14 
      22        2        9       10       15 
      23        1        9        6        2 
      24        1        9        6       16 
      25        2       11        9       10 
      26        2       12        9       11 
      27        2       12        9       10 
      28        2       14       10       13 
      29        2       15       10       13 
      30        2       15       10       14 
      31        2       18       16       17 
      32        2       19       16       18 
      33        2       19       16       17 
      34        2       20       17       16 
      35        2       21       17       20 
      36        2       21       17       16 
      37        2       22       17       20 
      38        2       22       17       16 
      39        2       22       17       21 
      40        1       23       20       17 
      41        1       24       20       23 
      42        1       24       20       17 
      43        1       25       13       10 
      44        2       26       25       13 
      45        2       27       25       26 
      46        2       27       25       13 
      47        2       28       25       26 
      48        2       28       25       27 
      49        2       28       25       13 
      50        2       29       26       25 
      51        2       30       26       29 
      52        2       30       26       25 
      53        2       31       26       30 
      54        2       31       26       29 
      55        2       31       26       25 
      56        1       32       29       26 
      57        1       33       29       26 
      58        1       33       29       32 
      59        2       34       33       29 
      60        2       35       33       34 
      61        2       35       33       29 
      62        2       36       33       35 
      63        2       36       33       34 
      64        2       36       33       29 
      65        2       37       34       33 
      66        2       38       34       37 
      67        2       38       34       33 
      68        2       39       34       37 
      69        2       39       34       33 
      70        2       39       34       38 
      71        1       40       13       10 
      72        1       40       13       25 
      73        2       41       40       13 
      74        2       42       40       41 
      75        2       42       40       13 
      76        2       43       40       41 
      77        2       43       40       42 
      78        2       43       40       13 
      79        2       44       41       40 
      80        2       45       41       44 
      81        2       45       41       40 
      82        2       46       41       45 
      83        2       46       41       44 
      84        2       46       41       40 
      85        1       47       44       41 
      86        1       48       44       47 
      87        1       48       44       41 
      88        1       49       37       34 
      89        2       50       49       37 
      90        2       51       49       50 
      91        2       51       49       37 
      92        2       52       49       51 
      93        2       52       49       50 
      94        2       52       49       37 
      95        2       53       50       49 
      96        2       54       50       49 
      97        2       54       50       53 
      98        2       55       50       54 
      99        2       55       50       49 
     100        2       55       50       53 
     101        1       56       53       50 
     102        1       57       53       56 
     103        1       57       53       50 
     104        1       58       37       34 
     105        1       58       37       49 
     106        2       59       58       37 
     107        2       60       58       59 
     108        2       60       58       37 
     109        2       61       58       60 
     110        2       61       58       59 
     111        2       61       58       37 
     112        2       62       59       58 
     113        2       63       59       58 
     114        2       63       59       62 
     115        2       64       59       63 
     116        2       64       59       58 
     117        2       64       59       62 
     118        1       65       62       59 
     119        1       66       62       65 
     120        1       66       62       59 

Dihedrals

       1        1        2        6        9       11 
       2        1        2        6        9       12 
       3        1        2        6        9       10 
       4        1        2        6       16       18 
       5        1        2        6       16       19 
       6        1        2        6       16       17 
       7        2        6        2        1        3 
       8        2        6        2        1        4 
       9        2        6        2        1        5 
      10        2        6        9       10       13 
      11        2        6        9       10       14 
      12        2        6        9       10       15 
      13        2        6       16       17       20 
      14        2        6       16       17       21 
      15        2        6       16       17       22 
      16        1        7        2        6       16 
      17        2        7        2        1        3 
      18        2        7        2        1        4 
      19        2        7        2        1        5 
      20        1        8        2        6       16 
      21        2        8        2        1        3 
      22        2        8        2        1        4 
      23        2        8        2        1        5 
      24        1        9       10       13       25 
      25        1        9       10       13       40 
      26        1        9        6        2        1 
      27        1        9        6        2        7 
      28        1        9        6        2        8 
      29        1        9        6       16       18 
      30        1        9        6       16       19 
      31        1        9        6       16       17 
      32        2       13       10        9       11 
      33        2       13       10        9       12 
      34        2       14       10        9       11 
      35        2       14       10        9       12 
      36        2       15       10        9       11 
      37        2       15       10        9       12 
      38        1       16        6        2        1 
      39        1       16        6        9       11 
      40        1       16        6        9       12 
      41        1       16        6        9       10 
      42        2       20       17       16       18 
      43        2       20       17       16       19 
      44        2       21       17       16       18 
      45        2       21       17       16       19 
      46        2       22       17       16       18 
      47        2       22       17       16       19 
      48        1       23       20       17       16 
      49        1       23       20       17       21 
      50        1       23       20       17       22 
      51        1       24       20       17       16 
      52        1       24       20       17       21 
      53        1       24       20       17       22 
      54        1       25       13       10       14 
      55        1       25       13       10       15 
      56        1       26       25       13       10 
      57        1       27       25       13       10 
      58        1       28       25       13       10 
      59        2       29       26       25       28 
      60        2       29       26       25       27 
      61        2       29       26       25       13 
      62        2       30       26       25       28 
      63        2       30       26       25       27 
      64        2       30       26       25       13 
      65        2       31       26       25       28 
      66        2       31       26       25       27 
      67        2       31       26       25       13 
      68        1       32       29       26       30 
      69        1       32       29       26       25 
      70        1       32       29       26       31 
      71        1       33       29       26       30 
      72        1       33       29       26       25 
      73        1       33       29       26       31 
      74        1       34       33       29       26 
      75        1       34       33       29       32 
      76        1       35       33       29       26 
      77        1       35       33       29       32 
      78        1       36       33       29       26 
      79        1       36       33       29       32 
      80        2       37       34       33       35 
      81        2       37       34       33       36 
      82        2       37       34       33       29 
      83        2       38       34       33       35 
      84        2       38       34       33       36 
      85        2       38       34       33       29 
      86        2       39       34       33       35 
      87        2       39       34       33       36 
      88        2       39       34       33       29 
      89        1       40       13       10       14 
      90        1       40       13       10       15 
      91        1       40       13       25       26 
      92        1       40       13       25       28 
      93        1       40       13       25       27 
      94        1       41       40       13       10 
      95        1       41       40       13       25 
      96        1       42       40       13       10 
      97        1       42       40       13       25 
      98        1       43       40       13       10 
      99        1       43       40       13       25 
     100        2       44       41       40       43 
     101        2       44       41       40       42 
     102        2       44       41       40       13 
     103        2       45       41       40       43 
     104        2       45       41       40       42 
     105        2       45       41       40       13 
     106        2       46       41       40       43 
     107        2       46       41       40       42 
     108        2       46       41       40       13 
     109        1       47       44       41       45 
     110        1       47       44       41       40 
     111        1       47       44       41       46 
     112        1       48       44       41       45 
     113        1       48       44       41       40 
     114        1       48       44       41       46 
     115        1       49       37       34       33 
     116        1       49       37       34       38 
     117        1       49       37       34       39 
     118        1       50       49       37       34 
     119        1       51       49       37       34 
     120        1       52       49       37       34 
     121        2       53       50       49       51 
     122        2       53       50       49       52 
     123        2       53       50       49       37 
     124        2       54       50       49       51 
     125        2       54       50       49       52 
     126        2       54       50       49       37 
     127        2       55       50       49       51 
     128        2       55       50       49       52 
     129        2       55       50       49       37 
     130        1       56       53       50       54 
     131        1       56       53       50       49 
     132        1       56       53       50       55 
     133        1       57       53       50       54 
     134        1       57       53       50       49 
     135        1       57       53       50       55 
     136        1       58       37       34       33 
     137        1       58       37       34       38 
     138        1       58       37       34       39 
     139        1       58       37       49       51 
     140        1       58       37       49       50 
     141        1       58       37       49       52 
     142        1       59       58       37       34 
     143        1       59       58       37       49 
     144        1       60       58       37       34 
     145        1       60       58       37       49 
     146        1       61       58       37       34 
     147        1       61       58       37       49 
     148        2       62       59       58       60 
     149        2       62       59       58       61 
     150        2       62       59       58       37 
     151        2       63       59       58       60 
     152        2       63       59       58       61 
     153        2       63       59       58       37 
     154        2       64       59       58       60 
     155        2       64       59       58       61 
     156        2       64       59       58       37 
     157        1       65       62       59       63 
     158        1       65       62       59       58 
     159        1       65       62       59       64 
     160        1       66       62       59       63 
     161        1       66       62       59       58 
     162        1       66       62       59       64 



