Created by /home/tpascal/scripts/createLammpsInput.pl on Thu Nov 26 12:10:55 2015

          18 atoms
          17 bonds
          30 angles
          36 dihedrals
           0 impropers

           4 atom types
           4 bond types
           2 angle types
           2 dihedral types
           0 improper types

           -50.000000  50.000000 xlo xhi
           -50.000000  50.000000 ylo yhi
           -50.000000  50.000000 zlo zhi

Masses

    1   1.0080 # H_     
    2   1.0080 # H___A  
    3  12.0110 # C_3    
    4  14.0067 # N_3    

Pair Coeffs

    1      0.01520000      2.84642140 
    2      0.00010000      2.84642140 
    3      0.09510000      3.47299047 
    4      0.07740000      3.26256020                 

Bond Coeffs

    1             350           1.462 # N_3 C_3 
    2             350           1.022 # N_3 H___A 
    3             350            1.53 # C_3 C_3 
    4             350            1.09 # C_3 H_                 

Angle Coeffs

    1              50           106.7 # X N_3 X 
    2              50         109.471 # X C_3 X                 

Dihedral Coeffs

    1        0.166667               3               0 0 # X N_3 C_3 X 
    2        0.111111               3               0 0 # X C_3 C_3 X 

Atoms

       1        0        3    -0.45170    1.63719    0.48059   -0.15696    0    0    0
       2        0        3    -0.10261    0.30824    1.07677    0.30913    0    0    0
       3        0        1     0.15635    1.69711    0.49141   -1.25051    0    0    0
       4        0        1     0.14637    1.77519   -0.55099    0.18353    0    0    0
       5        0        1     0.14217    2.47133    1.06897    0.24186    0    0    0
       6        0        4    -0.24559   -0.86284    0.45909   -0.31543    0    0    0
       7        0        1     0.13451    0.29058    2.14062    0.04171    0    0    0
       8        0        1     0.10549    0.24753    1.03255    1.41710    0    0    0
       9        0        2     0.11501   -2.06495    1.24270   -0.06762    0    0    0
      10        1        3    -0.30533    0.98807   -0.89955   -0.06328    0    0    0
      11        1        3    -0.10261   -0.34088   -0.30337    0.40281    0    0    0
      12        1        1     0.15635    1.04799   -0.88873   -1.15683    0    0    0
      13        1        1     0.14217    1.82221   -0.31117    0.33554    0    0    0
      14        1        4    -0.35950   -1.51196   -0.92105   -0.22175    0    0    0
      15        1        1     0.13451   -0.35854    0.76048    0.13539    0    0    0
      16        1        1     0.10549   -0.40159   -0.34759    1.51078    0    0    0
      17        1        2     0.11501   -2.71407   -0.13744    0.02606    0    0    0
      18        1        2     0.11391   -1.70607   -2.30540    0.18867    0    0    0


Bonds

       1        4        1        3 
       2        4        1        4 
       3        4        1        5 
       4        3        1        2 
       5        1        2        6 
       6        4        2        7 
       7        4        2        8 
       8        2        6        9 
       9        1        6       10 
      10        4       10       12 
      11        4       10       13 
      12        3       10       11 
      13        1       11       14 
      14        4       11       15 
      15        4       11       16 
      16        2       14       17 
      17        2       14       18 

Angles

       1        1        2        6       10 
       2        2        3        1        2 
       3        2        4        1        3 
       4        2        4        1        2 
       5        2        5        1        3 
       6        2        5        1        4 
       7        2        5        1        2 
       8        2        6        2        1 
       9        2        6       10       12 
      10        2        6       10       13 
      11        2        6       10       11 
      12        2        7        2        6 
      13        2        7        2        1 
      14        2        8        2        6 
      15        2        8        2        1 
      16        2        8        2        7 
      17        1        9        6        2 
      18        1        9        6       10 
      19        2       12       10       11 
      20        2       13       10       12 
      21        2       13       10       11 
      22        2       14       11       10 
      23        2       15       11       14 
      24        2       15       11       10 
      25        2       16       11       14 
      26        2       16       11       10 
      27        2       16       11       15 
      28        1       17       14       11 
      29        1       18       14       17 
      30        1       18       14       11 

Dihedrals

       1        1        1        2        6       10 
       2        1        2        6       10       12 
       3        1        2        6       10       13 
       4        1        2        6       10       11 
       5        2        6        2        1        3 
       6        2        6        2        1        4 
       7        2        6        2        1        5 
       8        2        6       10       11       14 
       9        2        6       10       11       15 
      10        2        6       10       11       16 
      11        1        7        2        6       10 
      12        2        7        2        1        3 
      13        2        7        2        1        4 
      14        2        7        2        1        5 
      15        1        8        2        6       10 
      16        2        8        2        1        3 
      17        2        8        2        1        4 
      18        2        8        2        1        5 
      19        1        9        6        2        1 
      20        1        9        6        2        7 
      21        1        9        6        2        8 
      22        1        9        6       10       12 
      23        1        9        6       10       13 
      24        1        9        6       10       11 
      25        2       14       11       10       12 
      26        2       14       11       10       13 
      27        2       15       11       10       12 
      28        2       15       11       10       13 
      29        2       16       11       10       12 
      30        2       16       11       10       13 
      31        1       17       14       11       10 
      32        1       17       14       11       15 
      33        1       17       14       11       16 
      34        1       18       14       11       10 
      35        1       18       14       11       15 
      36        1       18       14       11       16 



