Created by /home/tpascal/scripts/createLammpsInput.pl on Thu Nov 26 12:10:55 2015

          26 atoms
          25 bonds
          45 angles
          57 dihedrals
           0 impropers

           4 atom types
           4 bond types
           2 angle types
           2 dihedral types
           0 improper types

           -50.000000  50.000000 xlo xhi
           -50.000000  50.000000 ylo yhi
           -50.000000  50.000000 zlo zhi

Masses

    1   1.0080 # H_     
    2   1.0080 # H___A  
    3  12.0110 # C_3    
    4  14.0067 # N_3    

Pair Coeffs

    1      0.01520000      2.84642140 
    2      0.00010000      2.84642140 
    3      0.09510000      3.47299047 
    4      0.07740000      3.26256020                 

Bond Coeffs

    1             350           1.462 # N_3 C_3 
    2             350           1.022 # N_3 H___A 
    3             350            1.53 # C_3 C_3 
    4             350            1.09 # C_3 H_                 

Angle Coeffs

    1              50           106.7 # X N_3 X 
    2              50         109.471 # X C_3 X                 

Dihedral Coeffs

    1        0.166667               3               0 0 # X N_3 C_3 X 
    2        0.111111               3               0 0 # X C_3 C_3 X 

Atoms

       1        0        3    -0.45170    2.49104    0.96882   -0.16210    0    0    0
       2        0        3    -0.10261    0.98367    1.11925    0.13477    0    0    0
       3        0        1     0.15635    2.65479    0.89383   -1.23907    0    0    0
       4        0        1     0.14637    2.89205    0.07534    0.31844    0    0    0
       5        0        1     0.14217    3.03235    1.83863    0.21410    0    0    0
       6        0        4    -0.13058    0.20241   -0.00285   -0.43425    0    0    0
       7        0        1     0.13451    0.63332    2.03904   -0.33835    0    0    0
       8        0        1     0.10549    0.81955    1.21597    1.21136    0    0    0
       9        1        3    -0.30533    0.10523   -1.23134    0.39210    0    0    0
      10        1        3    -0.10261   -1.12970   -1.22111    1.32074    0    0    0
      11        1        1     0.15635    0.02201   -2.08006   -0.28957    0    0    0
      12        1        1     0.14217    1.00876   -1.38221    0.98841    0    0    0
      13        1        4    -0.35950   -2.37683   -1.22490    0.54677    0    0    0
      14        1        1     0.13451   -1.11393   -0.33833    1.96245    0    0    0
      15        1        1     0.10549   -1.11504   -2.10974    1.95543    0    0    0
      16        1        2     0.11501   -3.14626   -1.28869    1.21675    0    0    0
      17        1        2     0.11391   -2.38843   -2.08987    0.00132    0    0    0
      18        2        3    -0.30533    1.29285    0.35803   -0.74142    0    0    0
      19        2        3    -0.10261   -0.03610    0.95421   -0.27533    0    0    0
      20        2        1     0.15635    1.35277    0.36885   -1.83497    0    0    0
      21        2        1     0.14217    2.12699    0.94641   -0.34260    0    0    0
      22        2        4    -0.35950   -1.20718    0.33653   -0.89989    0    0    0
      23        2        1     0.13451   -0.05376    2.01806   -0.54275    0    0    0
      24        2        1     0.10549   -0.09681    0.90999    0.83264    0    0    0
      25        2        2     0.11501   -2.40929    1.12014   -0.65208    0    0    0
      26        2        2     0.11391   -1.40129   -1.04782   -0.48947    0    0    0


Bonds

       1        4        1        3 
       2        4        1        4 
       3        4        1        5 
       4        3        1        2 
       5        1        2        6 
       6        4        2        7 
       7        4        2        8 
       8        1        6        9 
       9        1        6       18 
      10        4        9       11 
      11        4        9       12 
      12        3        9       10 
      13        1       10       13 
      14        4       10       14 
      15        4       10       15 
      16        2       13       16 
      17        2       13       17 
      18        4       18       20 
      19        4       18       21 
      20        3       18       19 
      21        1       19       22 
      22        4       19       23 
      23        4       19       24 
      24        2       22       25 
      25        2       22       26 

Angles

       1        1        2        6       18 
       2        2        3        1        2 
       3        2        4        1        3 
       4        2        4        1        2 
       5        2        5        1        3 
       6        2        5        1        4 
       7        2        5        1        2 
       8        2        6        2        1 
       9        2        6        9       11 
      10        2        6        9       12 
      11        2        6        9       10 
      12        2        6       18       20 
      13        2        6       18       21 
      14        2        6       18       19 
      15        2        7        2        6 
      16        2        7        2        1 
      17        2        8        2        6 
      18        2        8        2        1 
      19        2        8        2        7 
      20        2        9       10       13 
      21        2        9       10       14 
      22        2        9       10       15 
      23        1        9        6        2 
      24        1        9        6       18 
      25        2       11        9       10 
      26        2       12        9       11 
      27        2       12        9       10 
      28        2       14       10       13 
      29        2       15       10       13 
      30        2       15       10       14 
      31        1       16       13       10 
      32        1       17       13       16 
      33        1       17       13       10 
      34        2       20       18       19 
      35        2       21       18       20 
      36        2       21       18       19 
      37        2       22       19       18 
      38        2       23       19       22 
      39        2       23       19       18 
      40        2       24       19       22 
      41        2       24       19       18 
      42        2       24       19       23 
      43        1       25       22       19 
      44        1       26       22       25 
      45        1       26       22       19 

Dihedrals

       1        1        2        6        9       11 
       2        1        2        6        9       12 
       3        1        2        6        9       10 
       4        1        2        6       18       20 
       5        1        2        6       18       21 
       6        1        2        6       18       19 
       7        2        6        2        1        3 
       8        2        6        2        1        4 
       9        2        6        2        1        5 
      10        2        6        9       10       13 
      11        2        6        9       10       14 
      12        2        6        9       10       15 
      13        2        6       18       19       22 
      14        2        6       18       19       23 
      15        2        6       18       19       24 
      16        1        7        2        6       18 
      17        2        7        2        1        3 
      18        2        7        2        1        4 
      19        2        7        2        1        5 
      20        1        8        2        6       18 
      21        2        8        2        1        3 
      22        2        8        2        1        4 
      23        2        8        2        1        5 
      24        1        9       10       13       16 
      25        1        9       10       13       17 
      26        1        9        6        2        1 
      27        1        9        6        2        7 
      28        1        9        6        2        8 
      29        1        9        6       18       20 
      30        1        9        6       18       21 
      31        1        9        6       18       19 
      32        2       13       10        9       11 
      33        2       13       10        9       12 
      34        2       14       10        9       11 
      35        2       14       10        9       12 
      36        2       15       10        9       11 
      37        2       15       10        9       12 
      38        1       16       13       10       14 
      39        1       16       13       10       15 
      40        1       17       13       10       14 
      41        1       17       13       10       15 
      42        1       18        6        2        1 
      43        1       18        6        9       11 
      44        1       18        6        9       12 
      45        1       18        6        9       10 
      46        2       22       19       18       20 
      47        2       22       19       18       21 
      48        2       23       19       18       20 
      49        2       23       19       18       21 
      50        2       24       19       18       20 
      51        2       24       19       18       21 
      52        1       25       22       19       18 
      53        1       25       22       19       23 
      54        1       25       22       19       24 
      55        1       26       22       19       18 
      56        1       26       22       19       23 
      57        1       26       22       19       24 



