Created by /home/tpascal/scripts/createLammpsInput.pl on Thu Nov 26 12:10:59 2015

          74 atoms
          73 bonds
         135 angles
         183 dihedrals
           0 impropers

           4 atom types
           4 bond types
           2 angle types
           2 dihedral types
           0 improper types

           -50.000000  50.000000 xlo xhi
           -50.000000  50.000000 ylo yhi
           -50.000000  50.000000 zlo zhi

Masses

    1   1.0080 # H_     
    2   1.0080 # H___A  
    3  12.0110 # C_3    
    4  14.0067 # N_3    

Pair Coeffs

    1      0.01520000      2.84642140 
    2      0.00010000      2.84642140 
    3      0.09510000      3.47299047 
    4      0.07740000      3.26256020                 

Bond Coeffs

    1             350           1.462 # N_3 C_3 
    2             350           1.022 # N_3 H___A 
    3             350            1.53 # C_3 C_3 
    4             350            1.09 # C_3 H_                 

Angle Coeffs

    1              50           106.7 # X N_3 X 
    2              50         109.471 # X C_3 X                 

Dihedral Coeffs

    1        0.166667               3               0 0 # X N_3 C_3 X 
    2        0.111111               3               0 0 # X C_3 C_3 X 

Atoms

       1        0        3    -0.45170    6.06407    2.58439   -0.28497    0    0    0
       2        0        3    -0.10261    4.97605    1.86168    0.53905    0    0    0
       3        0        1     0.15635    5.61603    3.22155   -1.04785    0    0    0
       4        0        1     0.14637    6.71551    1.85326   -0.76704    0    0    0
       5        0        1     0.14217    6.66889    3.21328    0.37050    0    0    0
       6        0        4    -0.13058    4.21116    0.83440   -0.23652    0    0    0
       7        0        1     0.13451    4.29248    2.59934    0.96472    0    0    0
       8        0        1     0.10549    5.49048    1.37914    1.37513    0    0    0
       9        1        3    -0.30533    3.67787   -0.32612    0.54618    0    0    0
      10        1        3    -0.10261    2.71213    0.03265    1.71116    0    0    0
      11        1        1     0.15635    3.20039   -1.02549   -0.13841    0    0    0
      12        1        1     0.14217    4.52777   -0.86646    0.97151    0    0    0
      13        1        4    -0.13058    2.00925   -1.15705    2.29646    0    0    0
      14        1        1     0.13451    1.97529    0.76463    1.38688    0    0    0
      15        1        1     0.10549    3.31384    0.52504    2.47899    0    0    0
      16        2        3    -0.30533    3.44070    1.27272   -1.44898    0    0    0
      17        2        3    -0.10261    2.27973    2.26850   -1.20638    0    0    0
      18        2        1     0.15635    3.03780    0.39611   -1.96248    0    0    0
      19        2        1     0.14217    4.14069    1.72647   -2.15206    0    0    0
      20        2        4    -0.24449    1.68716    2.69575   -2.47856    0    0    0
      21        2        1     0.13451    2.64007    3.15759   -0.68843    0    0    0
      22        2        1     0.10549    1.49430    1.80536   -0.61119    0    0    0
      23        2        2     0.11391    1.26848    1.86826   -2.90913    0    0    0
      24        3        3    -0.29045    1.08999   -1.96133    1.42128    0    0    0
      25        3        3    -0.10770    0.18020   -1.14933    0.46387    0    0    0
      26        3        1     0.13697    0.45678   -2.61033    2.03150    0    0    0
      27        3        1     0.14336    1.70825   -2.63039    0.81906    0    0    0
      28        3        4    -0.41671   -0.78022   -2.04063   -0.22599    0    0    0
      29        3        1     0.13858    0.80463   -0.64823   -0.27756    0    0    0
      30        3        1     0.10679   -0.35909   -0.39005    1.02970    0    0    0
      31        3        2     0.28916   -1.49032   -2.33032    0.44997    0    0    0
      32        4        3    -0.30953   -1.46410   -1.46437   -1.40801    0    0    0
      33        4        3    -0.10261   -2.52175   -0.37132   -1.10482    0    0    0
      34        4        1     0.15635   -0.71537   -1.06162   -2.09645    0    0    0
      35        4        1     0.14637   -1.95735   -2.28835   -1.92702    0    0    0
      36        4        4    -0.13058   -3.75028   -0.95536   -0.46717    0    0    0
      37        4        1     0.13451   -2.76196    0.10501   -2.05867    0    0    0
      38        4        1     0.10549   -2.08769    0.41749   -0.48635    0    0    0
      39        5        3    -0.29045    1.65838   -1.06612    3.74974    0    0    0
      40        5        3    -0.10770    0.45349   -0.15568    4.09793    0    0    0
      41        5        1     0.13697    1.47569   -2.07084    4.14013    0    0    0
      42        5        1     0.14336    2.53171   -0.69719    4.29505    0    0    0
      43        5        4    -0.53171   -0.83888   -0.81866    3.89117    0    0    0
      44        5        1     0.13858    0.48412    0.76164    3.50871    0    0    0
      45        5        1     0.10679    0.50791    0.11889    5.15317    0    0    0
      46        5        2     0.11500   -0.89624   -1.08576    2.90911    0    0    0
      47        5        2     0.28916   -0.82494   -1.68467    4.43468    0    0    0
      48        6        3    -0.27406   -5.04908   -0.62316   -1.14492    0    0    0
      49        6        3    -0.12755   -5.35262   -1.57849   -2.32454    0    0    0
      50        6        1     0.13574   -5.05412    0.41369   -1.49256    0    0    0
      51        6        1     0.13985   -5.88821   -0.71450   -0.45089    0    0    0
      52        6        4    -0.70870   -4.42450   -1.42066   -3.44964    0    0    0
      53        6        1     0.11144   -6.36296   -1.38832   -2.69323    0    0    0
      54        6        1     0.14044   -5.30506   -2.61234   -1.97672    0    0    0
      55        6        2     0.28937   -4.53666   -0.46838   -3.80521    0    0    0
      56        6        2     0.29347   -4.73996   -2.05223   -4.18926    0    0    0
      57        7        3    -0.27406   -3.77631   -0.90611    1.03182    0    0    0
      58        7        3    -0.12755   -4.45793   -2.14637    1.65720    0    0    0
      59        7        1     0.13574   -2.76502   -0.86487    1.44076    0    0    0
      60        7        1     0.13985   -4.28812   -0.00007    1.36823    0    0    0
      61        7        4    -0.70870   -3.76128   -3.38142    1.28010    0    0    0
      62        7        1     0.11144   -5.50044   -2.21917    1.34382    0    0    0
      63        7        1     0.14044   -4.43723   -2.05982    2.74566    0    0    0
      64        7        2     0.28937   -3.87799   -3.49645    0.27087    0    0    0
      65        7        2     0.29347   -4.26109   -4.15387    1.72576    0    0    0
      66        8        3    -0.29815    2.16736    3.09275   -2.22386    0    0    0
      67        8        3    -0.12755    0.86861    3.89147   -2.30553    0    0    0
      68        8        1     0.15983    2.21901    2.54502   -1.27735    0    0    0
      69        8        1     0.13985    3.03992    3.75160   -2.29938    0    0    0
      70        8        4    -0.70870   -0.28883    3.00540   -2.13025    0    0    0
      71        8        1     0.11144    0.85452    4.46652   -3.25013    0    0    0
      72        8        1     0.14044    0.84366    4.62917   -1.49321    0    0    0
      73        8        2     0.28937   -0.33631    2.35182   -2.91204    0    0    0
      74        8        2     0.29347   -1.14957    3.54950   -2.17015    0    0    0


Bonds

       1        4        1        3 
       2        4        1        4 
       3        4        1        5 
       4        3        1        2 
       5        1        2        6 
       6        4        2        7 
       7        4        2        8 
       8        1        6        9 
       9        1        6       16 
      10        4        9       11 
      11        4        9       12 
      12        3        9       10 
      13        1       10       13 
      14        4       10       14 
      15        4       10       15 
      16        1       13       24 
      17        1       13       39 
      18        4       16       18 
      19        4       16       19 
      20        3       16       17 
      21        1       17       20 
      22        4       17       21 
      23        4       17       22 
      24        2       20       23 
      25        1       20       66 
      26        3       24       25 
      27        4       24       27 
      28        4       24       26 
      29        4       25       29 
      30        1       25       28 
      31        4       25       30 
      32        2       28       31 
      33        1       28       32 
      34        4       32       34 
      35        4       32       35 
      36        3       32       33 
      37        1       33       36 
      38        4       33       37 
      39        4       33       38 
      40        1       36       48 
      41        1       36       57 
      42        3       39       40 
      43        4       39       42 
      44        4       39       41 
      45        4       40       44 
      46        1       40       43 
      47        4       40       45 
      48        2       43       46 
      49        2       43       47 
      50        4       48       50 
      51        3       48       49 
      52        4       48       51 
      53        4       49       53 
      54        1       49       52 
      55        4       49       54 
      56        2       52       55 
      57        2       52       56 
      58        4       57       59 
      59        3       57       58 
      60        4       57       60 
      61        4       58       62 
      62        1       58       61 
      63        4       58       63 
      64        2       61       64 
      65        2       61       65 
      66        3       66       67 
      67        4       66       69 
      68        4       66       68 
      69        4       67       71 
      70        1       67       70 
      71        4       67       72 
      72        2       70       73 
      73        2       70       74 

Angles

       1        1        2        6       16 
       2        2        3        1        2 
       3        2        4        1        3 
       4        2        4        1        2 
       5        2        5        1        3 
       6        2        5        1        4 
       7        2        5        1        2 
       8        2        6        2        1 
       9        2        6        9       11 
      10        2        6        9       12 
      11        2        6        9       10 
      12        2        6       16       18 
      13        2        6       16       19 
      14        2        6       16       17 
      15        2        7        2        6 
      16        2        7        2        1 
      17        2        8        2        6 
      18        2        8        2        1 
      19        2        8        2        7 
      20        2        9       10       13 
      21        2        9       10       14 
      22        2        9       10       15 
      23        1        9        6        2 
      24        1        9        6       16 
      25        2       11        9       10 
      26        2       12        9       11 
      27        2       12        9       10 
      28        2       14       10       13 
      29        2       15       10       13 
      30        2       15       10       14 
      31        2       18       16       17 
      32        2       19       16       18 
      33        2       19       16       17 
      34        2       20       17       16 
      35        2       21       17       20 
      36        2       21       17       16 
      37        2       22       17       20 
      38        2       22       17       16 
      39        2       22       17       21 
      40        1       23       20       17 
      41        1       24       13       10 
      42        2       25       24       13 
      43        2       26       24       25 
      44        2       26       24       13 
      45        2       27       24       25 
      46        2       27       24       26 
      47        2       27       24       13 
      48        2       28       25       24 
      49        2       29       25       28 
      50        2       29       25       24 
      51        2       30       25       29 
      52        2       30       25       28 
      53        2       30       25       24 
      54        1       31       28       25 
      55        1       32       28       25 
      56        1       32       28       31 
      57        2       33       32       28 
      58        2       34       32       33 
      59        2       34       32       28 
      60        2       35       32       34 
      61        2       35       32       33 
      62        2       35       32       28 
      63        2       36       33       32 
      64        2       37       33       36 
      65        2       37       33       32 
      66        2       38       33       36 
      67        2       38       33       32 
      68        2       38       33       37 
      69        1       39       13       10 
      70        1       39       13       24 
      71        2       40       39       13 
      72        2       41       39       40 
      73        2       41       39       13 
      74        2       42       39       40 
      75        2       42       39       41 
      76        2       42       39       13 
      77        2       43       40       39 
      78        2       44       40       43 
      79        2       44       40       39 
      80        2       45       40       44 
      81        2       45       40       43 
      82        2       45       40       39 
      83        1       46       43       40 
      84        1       47       43       46 
      85        1       47       43       40 
      86        1       48       36       33 
      87        2       49       48       36 
      88        2       50       48       49 
      89        2       50       48       36 
      90        2       51       48       50 
      91        2       51       48       49 
      92        2       51       48       36 
      93        2       52       49       48 
      94        2       53       49       48 
      95        2       53       49       52 
      96        2       54       49       53 
      97        2       54       49       48 
      98        2       54       49       52 
      99        1       55       52       49 
     100        1       56       52       55 
     101        1       56       52       49 
     102        1       57       36       33 
     103        1       57       36       48 
     104        2       58       57       36 
     105        2       59       57       58 
     106        2       59       57       36 
     107        2       60       57       59 
     108        2       60       57       58 
     109        2       60       57       36 
     110        2       61       58       57 
     111        2       62       58       57 
     112        2       62       58       61 
     113        2       63       58       62 
     114        2       63       58       57 
     115        2       63       58       61 
     116        1       64       61       58 
     117        1       65       61       64 
     118        1       65       61       58 
     119        1       66       20       23 
     120        1       66       20       17 
     121        2       67       66       20 
     122        2       68       66       67 
     123        2       68       66       20 
     124        2       69       66       67 
     125        2       69       66       68 
     126        2       69       66       20 
     127        2       70       67       66 
     128        2       71       67       66 
     129        2       71       67       70 
     130        2       72       67       71 
     131        2       72       67       66 
     132        2       72       67       70 
     133        1       73       70       67 
     134        1       74       70       73 
     135        1       74       70       67 

Dihedrals

       1        1        2        6        9       11 
       2        1        2        6        9       12 
       3        1        2        6        9       10 
       4        1        2        6       16       18 
       5        1        2        6       16       19 
       6        1        2        6       16       17 
       7        2        6        2        1        3 
       8        2        6        2        1        4 
       9        2        6        2        1        5 
      10        2        6        9       10       13 
      11        2        6        9       10       14 
      12        2        6        9       10       15 
      13        2        6       16       17       20 
      14        2        6       16       17       21 
      15        2        6       16       17       22 
      16        1        7        2        6       16 
      17        2        7        2        1        3 
      18        2        7        2        1        4 
      19        2        7        2        1        5 
      20        1        8        2        6       16 
      21        2        8        2        1        3 
      22        2        8        2        1        4 
      23        2        8        2        1        5 
      24        1        9       10       13       24 
      25        1        9       10       13       39 
      26        1        9        6        2        1 
      27        1        9        6        2        7 
      28        1        9        6        2        8 
      29        1        9        6       16       18 
      30        1        9        6       16       19 
      31        1        9        6       16       17 
      32        2       13       10        9       11 
      33        2       13       10        9       12 
      34        2       14       10        9       11 
      35        2       14       10        9       12 
      36        2       15       10        9       11 
      37        2       15       10        9       12 
      38        1       16        6        2        1 
      39        1       16        6        9       11 
      40        1       16        6        9       12 
      41        1       16        6        9       10 
      42        2       20       17       16       18 
      43        2       20       17       16       19 
      44        2       21       17       16       18 
      45        2       21       17       16       19 
      46        2       22       17       16       18 
      47        2       22       17       16       19 
      48        1       23       20       17       16 
      49        1       23       20       17       21 
      50        1       23       20       17       22 
      51        1       24       13       10       14 
      52        1       24       13       10       15 
      53        1       25       24       13       10 
      54        1       26       24       13       10 
      55        1       27       24       13       10 
      56        2       28       25       24       27 
      57        2       28       25       24       26 
      58        2       28       25       24       13 
      59        2       29       25       24       27 
      60        2       29       25       24       26 
      61        2       29       25       24       13 
      62        2       30       25       24       27 
      63        2       30       25       24       26 
      64        2       30       25       24       13 
      65        1       31       28       25       29 
      66        1       31       28       25       24 
      67        1       31       28       25       30 
      68        1       32       28       25       29 
      69        1       32       28       25       24 
      70        1       32       28       25       30 
      71        1       33       32       28       25 
      72        1       33       32       28       31 
      73        1       34       32       28       25 
      74        1       34       32       28       31 
      75        1       35       32       28       25 
      76        1       35       32       28       31 
      77        2       36       33       32       34 
      78        2       36       33       32       35 
      79        2       36       33       32       28 
      80        2       37       33       32       34 
      81        2       37       33       32       35 
      82        2       37       33       32       28 
      83        2       38       33       32       34 
      84        2       38       33       32       35 
      85        2       38       33       32       28 
      86        1       39       13       10       14 
      87        1       39       13       10       15 
      88        1       39       13       24       25 
      89        1       39       13       24       27 
      90        1       39       13       24       26 
      91        1       40       39       13       10 
      92        1       40       39       13       24 
      93        1       41       39       13       10 
      94        1       41       39       13       24 
      95        1       42       39       13       10 
      96        1       42       39       13       24 
      97        2       43       40       39       42 
      98        2       43       40       39       41 
      99        2       43       40       39       13 
     100        2       44       40       39       42 
     101        2       44       40       39       41 
     102        2       44       40       39       13 
     103        2       45       40       39       42 
     104        2       45       40       39       41 
     105        2       45       40       39       13 
     106        1       46       43       40       44 
     107        1       46       43       40       39 
     108        1       46       43       40       45 
     109        1       47       43       40       44 
     110        1       47       43       40       39 
     111        1       47       43       40       45 
     112        1       48       36       33       32 
     113        1       48       36       33       37 
     114        1       48       36       33       38 
     115        1       49       48       36       33 
     116        1       50       48       36       33 
     117        1       51       48       36       33 
     118        2       52       49       48       50 
     119        2       52       49       48       51 
     120        2       52       49       48       36 
     121        2       53       49       48       50 
     122        2       53       49       48       51 
     123        2       53       49       48       36 
     124        2       54       49       48       50 
     125        2       54       49       48       51 
     126        2       54       49       48       36 
     127        1       55       52       49       53 
     128        1       55       52       49       48 
     129        1       55       52       49       54 
     130        1       56       52       49       53 
     131        1       56       52       49       48 
     132        1       56       52       49       54 
     133        1       57       36       33       32 
     134        1       57       36       33       37 
     135        1       57       36       33       38 
     136        1       57       36       48       50 
     137        1       57       36       48       49 
     138        1       57       36       48       51 
     139        1       58       57       36       33 
     140        1       58       57       36       48 
     141        1       59       57       36       33 
     142        1       59       57       36       48 
     143        1       60       57       36       33 
     144        1       60       57       36       48 
     145        2       61       58       57       59 
     146        2       61       58       57       60 
     147        2       61       58       57       36 
     148        2       62       58       57       59 
     149        2       62       58       57       60 
     150        2       62       58       57       36 
     151        2       63       58       57       59 
     152        2       63       58       57       60 
     153        2       63       58       57       36 
     154        1       64       61       58       62 
     155        1       64       61       58       57 
     156        1       64       61       58       63 
     157        1       65       61       58       62 
     158        1       65       61       58       57 
     159        1       65       61       58       63 
     160        1       66       20       17       16 
     161        1       66       20       17       21 
     162        1       66       20       17       22 
     163        1       67       66       20       23 
     164        1       67       66       20       17 
     165        1       68       66       20       23 
     166        1       68       66       20       17 
     167        1       69       66       20       23 
     168        1       69       66       20       17 
     169        2       70       67       66       69 
     170        2       70       67       66       68 
     171        2       70       67       66       20 
     172        2       71       67       66       69 
     173        2       71       67       66       68 
     174        2       71       67       66       20 
     175        2       72       67       66       69 
     176        2       72       67       66       68 
     177        2       72       67       66       20 
     178        1       73       70       67       71 
     179        1       73       70       67       66 
     180        1       73       70       67       72 
     181        1       74       70       67       71 
     182        1       74       70       67       66 
     183        1       74       70       67       72 



