Created by /home/tpascal/scripts/createLammpsInput.pl on Thu Nov 26 12:10:57 2015

          50 atoms
          49 bonds
          90 angles
         120 dihedrals
           0 impropers

           4 atom types
           4 bond types
           2 angle types
           2 dihedral types
           0 improper types

           -50.000000  50.000000 xlo xhi
           -50.000000  50.000000 ylo yhi
           -50.000000  50.000000 zlo zhi

Masses

    1   1.0080 # H_     
    2   1.0080 # H___A  
    3  12.0110 # C_3    
    4  14.0067 # N_3    

Pair Coeffs

    1      0.01520000      2.84642140 
    2      0.00010000      2.84642140 
    3      0.09510000      3.47299047 
    4      0.07740000      3.26256020                 

Bond Coeffs

    1             350           1.462 # N_3 C_3 
    2             350           1.022 # N_3 H___A 
    3             350            1.53 # C_3 C_3 
    4             350            1.09 # C_3 H_                 

Angle Coeffs

    1              50           106.7 # X N_3 X 
    2              50         109.471 # X C_3 X                 

Dihedral Coeffs

    1        0.166667               3               0 0 # X N_3 C_3 X 
    2        0.111111               3               0 0 # X C_3 C_3 X 

Atoms

       1        0        3    -0.45170    4.20566    2.68613   -0.25108    0    0    0
       2        0        3    -0.10261    2.73930    2.70428    0.22706    0    0    0
       3        0        1     0.15635    4.25108    2.78419   -1.33705    0    0    0
       4        0        1     0.14637    4.69027    1.75335    0.04120    0    0    0
       5        0        1     0.14217    4.75119    3.51769    0.19899    0    0    0
       6        0        4    -0.13058    1.94467    1.60311   -0.38606    0    0    0
       7        0        1     0.13451    2.30154    3.67270   -0.02615    0    0    0
       8        0        1     0.10549    2.71955    2.61925    1.31584    0    0    0
       9        1        3    -0.30533    1.94584    0.24845    0.24137    0    0    0
      10        1        3    -0.10261    1.03080    0.17380    1.49498    0    0    0
      11        1        1     0.15635    1.63001   -0.48626   -0.49726    0    0    0
      12        1        1     0.14217    2.96360   -0.02535    0.52884    0    0    0
      13        1        4    -0.13058    0.63202   -1.19315    1.92078    0    0    0
      14        1        1     0.13451    0.13606    0.77912    1.34897    0    0    0
      15        1        1     0.10549    1.56816    0.61785    2.33501    0    0    0
      16        2        3    -0.30533    1.17087    1.85984   -1.63909    0    0    0
      17        2        3    -0.10261   -0.18570    2.54824   -1.36483    0    0    0
      18        2        1     0.15635    0.98799    0.92449   -2.17399    0    0    0
      19        2        1     0.14217    1.76150    2.49219   -2.30665    0    0    0
      20        2        4    -0.35950   -0.97963    2.64678   -2.59438    0    0    0
      21        2        1     0.13451   -0.02324    3.55544   -0.97765    0    0    0
      22        2        1     0.10549   -0.75863    1.98096   -0.63149    0    0    0
      23        2        2     0.11501   -1.86239    3.09793   -2.34477    0    0    0
      24        2        2     0.11391   -1.20777    1.69169   -2.87970    0    0    0
      25        3        3    -0.29045   -0.09425   -2.07196    0.96529    0    0    0
      26        3        3    -0.10770   -1.34190   -1.44607    0.29418    0    0    0
      27        3        1     0.13697   -0.41035   -2.95657    1.52201    0    0    0
      28        3        1     0.14336    0.60193   -2.41605    0.19854    0    0    0
      29        3        4    -0.41671   -1.88020   -2.35665   -0.74705    0    0    0
      30        3        1     0.13858   -1.06784   -0.48717   -0.14484    0    0    0
      31        3        1     0.10679   -2.11269   -1.26613    1.04665    0    0    0
      32        3        2     0.28916   -2.73284   -2.78770   -0.38268    0    0    0
      33        4        3    -0.30953   -2.19643   -1.74039   -2.05947    0    0    0
      34        4        3    -0.10261   -3.44093   -0.81976   -2.03698    0    0    0
      35        4        1     0.15635   -1.33011   -1.17465   -2.41369    0    0    0
      36        4        1     0.14637   -2.36347   -2.54696   -2.77616    0    0    0
      37        4        4    -0.35950   -4.68291   -1.59962   -2.02055    0    0    0
      38        4        1     0.13451   -3.44599   -0.19573   -2.93261    0    0    0
      39        4        1     0.10549   -3.42131   -0.16252   -1.16591    0    0    0
      40        4        2     0.11501   -5.45372   -0.93198   -1.94657    0    0    0
      41        4        2     0.11391   -4.68457   -2.15494   -1.16326    0    0    0
      42        5        3    -0.29045    1.92832   -1.22037    2.70931    0    0    0
      43        5        3    -0.10770    0.54656   -0.57512    2.78492    0    0    0
      44        5        1     0.13697    2.07467   -1.93880    3.52628    0    0    0
      45        5        1     0.14336    2.71746   -0.46452    2.78846    0    0    0
      46        5        4    -0.53171   -0.51008   -1.56991    2.61903    0    0    0
      47        5        1     0.13858    0.43908    0.15964    1.97510    0    0    0
      48        5        1     0.10679    0.45123   -0.00523    3.73155    0    0    0
      49        5        2     0.11500   -1.84907   -1.00489    2.73124    0    0    0
      50        5        2     0.28916   -0.39425   -2.29249    3.32866    0    0    0


Bonds

       1        4        1        3 
       2        4        1        4 
       3        4        1        5 
       4        3        1        2 
       5        1        2        6 
       6        4        2        7 
       7        4        2        8 
       8        1        6        9 
       9        1        6       16 
      10        4        9       11 
      11        4        9       12 
      12        3        9       10 
      13        1       10       13 
      14        4       10       14 
      15        4       10       15 
      16        1       13       25 
      17        1       13       42 
      18        4       16       18 
      19        4       16       19 
      20        3       16       17 
      21        1       17       20 
      22        4       17       21 
      23        4       17       22 
      24        2       20       23 
      25        2       20       24 
      26        3       25       26 
      27        4       25       28 
      28        4       25       27 
      29        4       26       30 
      30        1       26       29 
      31        4       26       31 
      32        2       29       32 
      33        1       29       33 
      34        4       33       35 
      35        4       33       36 
      36        3       33       34 
      37        1       34       37 
      38        4       34       38 
      39        4       34       39 
      40        2       37       40 
      41        2       37       41 
      42        3       42       43 
      43        4       42       45 
      44        4       42       44 
      45        4       43       47 
      46        1       43       46 
      47        4       43       48 
      48        2       46       49 
      49        2       46       50 

Angles

       1        1        2        6       16 
       2        2        3        1        2 
       3        2        4        1        3 
       4        2        4        1        2 
       5        2        5        1        3 
       6        2        5        1        4 
       7        2        5        1        2 
       8        2        6        2        1 
       9        2        6        9       11 
      10        2        6        9       12 
      11        2        6        9       10 
      12        2        6       16       18 
      13        2        6       16       19 
      14        2        6       16       17 
      15        2        7        2        6 
      16        2        7        2        1 
      17        2        8        2        6 
      18        2        8        2        1 
      19        2        8        2        7 
      20        2        9       10       13 
      21        2        9       10       14 
      22        2        9       10       15 
      23        1        9        6        2 
      24        1        9        6       16 
      25        2       11        9       10 
      26        2       12        9       11 
      27        2       12        9       10 
      28        2       14       10       13 
      29        2       15       10       13 
      30        2       15       10       14 
      31        2       18       16       17 
      32        2       19       16       18 
      33        2       19       16       17 
      34        2       20       17       16 
      35        2       21       17       20 
      36        2       21       17       16 
      37        2       22       17       20 
      38        2       22       17       16 
      39        2       22       17       21 
      40        1       23       20       17 
      41        1       24       20       23 
      42        1       24       20       17 
      43        1       25       13       10 
      44        2       26       25       13 
      45        2       27       25       26 
      46        2       27       25       13 
      47        2       28       25       26 
      48        2       28       25       27 
      49        2       28       25       13 
      50        2       29       26       25 
      51        2       30       26       29 
      52        2       30       26       25 
      53        2       31       26       30 
      54        2       31       26       29 
      55        2       31       26       25 
      56        1       32       29       26 
      57        1       33       29       26 
      58        1       33       29       32 
      59        2       34       33       29 
      60        2       35       33       34 
      61        2       35       33       29 
      62        2       36       33       35 
      63        2       36       33       34 
      64        2       36       33       29 
      65        2       37       34       33 
      66        2       38       34       37 
      67        2       38       34       33 
      68        2       39       34       37 
      69        2       39       34       33 
      70        2       39       34       38 
      71        1       40       37       34 
      72        1       41       37       40 
      73        1       41       37       34 
      74        1       42       13       10 
      75        1       42       13       25 
      76        2       43       42       13 
      77        2       44       42       43 
      78        2       44       42       13 
      79        2       45       42       43 
      80        2       45       42       44 
      81        2       45       42       13 
      82        2       46       43       42 
      83        2       47       43       46 
      84        2       47       43       42 
      85        2       48       43       47 
      86        2       48       43       46 
      87        2       48       43       42 
      88        1       49       46       43 
      89        1       50       46       49 
      90        1       50       46       43 

Dihedrals

       1        1        2        6        9       11 
       2        1        2        6        9       12 
       3        1        2        6        9       10 
       4        1        2        6       16       18 
       5        1        2        6       16       19 
       6        1        2        6       16       17 
       7        2        6        2        1        3 
       8        2        6        2        1        4 
       9        2        6        2        1        5 
      10        2        6        9       10       13 
      11        2        6        9       10       14 
      12        2        6        9       10       15 
      13        2        6       16       17       20 
      14        2        6       16       17       21 
      15        2        6       16       17       22 
      16        1        7        2        6       16 
      17        2        7        2        1        3 
      18        2        7        2        1        4 
      19        2        7        2        1        5 
      20        1        8        2        6       16 
      21        2        8        2        1        3 
      22        2        8        2        1        4 
      23        2        8        2        1        5 
      24        1        9       10       13       25 
      25        1        9       10       13       42 
      26        1        9        6        2        1 
      27        1        9        6        2        7 
      28        1        9        6        2        8 
      29        1        9        6       16       18 
      30        1        9        6       16       19 
      31        1        9        6       16       17 
      32        2       13       10        9       11 
      33        2       13       10        9       12 
      34        2       14       10        9       11 
      35        2       14       10        9       12 
      36        2       15       10        9       11 
      37        2       15       10        9       12 
      38        1       16        6        2        1 
      39        1       16        6        9       11 
      40        1       16        6        9       12 
      41        1       16        6        9       10 
      42        2       20       17       16       18 
      43        2       20       17       16       19 
      44        2       21       17       16       18 
      45        2       21       17       16       19 
      46        2       22       17       16       18 
      47        2       22       17       16       19 
      48        1       23       20       17       16 
      49        1       23       20       17       21 
      50        1       23       20       17       22 
      51        1       24       20       17       16 
      52        1       24       20       17       21 
      53        1       24       20       17       22 
      54        1       25       13       10       14 
      55        1       25       13       10       15 
      56        1       26       25       13       10 
      57        1       27       25       13       10 
      58        1       28       25       13       10 
      59        2       29       26       25       28 
      60        2       29       26       25       27 
      61        2       29       26       25       13 
      62        2       30       26       25       28 
      63        2       30       26       25       27 
      64        2       30       26       25       13 
      65        2       31       26       25       28 
      66        2       31       26       25       27 
      67        2       31       26       25       13 
      68        1       32       29       26       30 
      69        1       32       29       26       25 
      70        1       32       29       26       31 
      71        1       33       29       26       30 
      72        1       33       29       26       25 
      73        1       33       29       26       31 
      74        1       34       33       29       26 
      75        1       34       33       29       32 
      76        1       35       33       29       26 
      77        1       35       33       29       32 
      78        1       36       33       29       26 
      79        1       36       33       29       32 
      80        2       37       34       33       35 
      81        2       37       34       33       36 
      82        2       37       34       33       29 
      83        2       38       34       33       35 
      84        2       38       34       33       36 
      85        2       38       34       33       29 
      86        2       39       34       33       35 
      87        2       39       34       33       36 
      88        2       39       34       33       29 
      89        1       40       37       34       33 
      90        1       40       37       34       38 
      91        1       40       37       34       39 
      92        1       41       37       34       33 
      93        1       41       37       34       38 
      94        1       41       37       34       39 
      95        1       42       13       10       14 
      96        1       42       13       10       15 
      97        1       42       13       25       26 
      98        1       42       13       25       28 
      99        1       42       13       25       27 
     100        1       43       42       13       10 
     101        1       43       42       13       25 
     102        1       44       42       13       10 
     103        1       44       42       13       25 
     104        1       45       42       13       10 
     105        1       45       42       13       25 
     106        2       46       43       42       45 
     107        2       46       43       42       44 
     108        2       46       43       42       13 
     109        2       47       43       42       45 
     110        2       47       43       42       44 
     111        2       47       43       42       13 
     112        2       48       43       42       45 
     113        2       48       43       42       44 
     114        2       48       43       42       13 
     115        1       49       46       43       47 
     116        1       49       46       43       42 
     117        1       49       46       43       48 
     118        1       50       46       43       47 
     119        1       50       46       43       42 
     120        1       50       46       43       48 



