Created by /home/tpascal/scripts/createLammpsInput.pl on Thu Nov 26 12:11:00 2015

          82 atoms
          81 bonds
         150 angles
         204 dihedrals
           0 impropers

           4 atom types
           4 bond types
           2 angle types
           2 dihedral types
           0 improper types

           -50.000000  50.000000 xlo xhi
           -50.000000  50.000000 ylo yhi
           -50.000000  50.000000 zlo zhi

Masses

    1   1.0080 # H_     
    2   1.0080 # H___A  
    3  12.0110 # C_3    
    4  14.0067 # N_3    

Pair Coeffs

    1      0.01520000      2.84642140 
    2      0.00010000      2.84642140 
    3      0.09510000      3.47299047 
    4      0.07740000      3.26256020                 

Bond Coeffs

    1             350           1.462 # N_3 C_3 
    2             350           1.022 # N_3 H___A 
    3             350            1.53 # C_3 C_3 
    4             350            1.09 # C_3 H_                 

Angle Coeffs

    1              50           106.7 # X N_3 X 
    2              50         109.471 # X C_3 X                 

Dihedral Coeffs

    1        0.166667               3               0 0 # X N_3 C_3 X 
    2        0.111111               3               0 0 # X C_3 C_3 X 

Atoms

       1        0        3    -0.45170    5.94804    2.25249    0.14587    0    0    0
       2        0        3    -0.10261    4.95328    1.39721    0.96373    0    0    0
       3        0        1     0.15635    5.41559    2.91177   -0.54148    0    0    0
       4        0        1     0.14637    6.62021    1.60731   -0.42238    0    0    0
       5        0        1     0.14217    6.54323    2.87337    0.81836    0    0    0
       6        0        4    -0.13058    4.21532    0.35397    0.17790    0    0    0
       7        0        1     0.13451    4.24628    2.06446    1.46117    0    0    0
       8        0        1     0.10549    5.53539    0.90261    1.74592    0    0    0
       9        1        3    -0.30533    3.59771   -0.75145    0.97884    0    0    0
      10        1        3    -0.10261    2.55746   -0.30350    2.04213    0    0    0
      11        1        1     0.15635    3.14887   -1.47550    0.29865    0    0    0
      12        1        1     0.14217    4.39953   -1.28546    1.49534    0    0    0
      13        1        4    -0.13058    1.79882   -1.44940    2.64775    0    0    0
      14        1        1     0.13451    1.86052    0.41487    1.61237    0    0    0
      15        1        1     0.10549    3.10788    0.22959    2.82136    0    0    0
      16        2        3    -0.30533    3.51792    0.75621   -1.08906    0    0    0
      17        2        3    -0.10261    2.35102    1.77023   -0.94663    0    0    0
      18        2        1     0.15635    3.14370   -0.13023   -1.60769    0    0    0
      19        2        1     0.14217    4.27290    1.17836   -1.75517    0    0    0
      20        2        4    -0.13058    2.16169    2.49168   -2.23037    0    0    0
      21        2        1     0.13451    2.57877    2.46577   -0.13975    0    0    0
      22        2        1     0.10549    1.42701    1.24885   -0.69266    0    0    0
      23        3        3    -0.29045    0.88140   -2.25603    1.77219    0    0    0
      24        3        3    -0.10770    0.02645   -1.44565    0.76453    0    0    0
      25        3        1     0.13697    0.21045   -2.86451    2.38446    0    0    0
      26        3        1     0.14336    1.49550   -2.96225    1.20973    0    0    0
      27        3        4    -0.41671   -0.97157   -2.31207    0.09764    0    0    0
      28        3        1     0.13858    0.68918   -1.01990    0.00952    0    0    0
      29        3        1     0.10679   -0.47813   -0.63123    1.28506    0    0    0
      30        3        2     0.28916   -1.68817   -2.55864    0.78273    0    0    0
      31        4        3    -0.30953   -1.64189   -1.73100   -1.08994    0    0    0
      32        4        3    -0.10261   -2.67736   -0.61415   -0.79626    0    0    0
      33        4        1     0.15635   -0.88578   -1.35000   -1.78216    0    0    0
      34        4        1     0.14637   -2.15371   -2.54865   -1.60119    0    0    0
      35        4        4    -0.13058   -3.91581   -1.17260   -0.15715    0    0    0
      36        4        1     0.13451   -2.90816   -0.14023   -1.75351    0    0    0
      37        4        1     0.10549   -2.23026    0.17104   -0.18214    0    0    0
      38        5        3    -0.29045    1.42363   -1.31472    4.09097    0    0    0
      39        5        3    -0.10770    0.25038   -0.34602    4.38860    0    0    0
      40        5        1     0.13697    1.18851   -2.30087    4.50020    0    0    0
      41        5        1     0.14336    2.29950   -0.96990    4.64723    0    0    0
      42        5        4    -0.53171   -1.06137   -0.96358    4.16503    0    0    0
      43        5        1     0.13858    0.33241    0.55255    3.77557    0    0    0
      44        5        1     0.10679    0.29093   -0.04551    5.43761    0    0    0
      45        5        2     0.11500   -1.09514   -1.27139    3.19323    0    0    0
      46        5        2     0.28916   -1.10076   -1.80508    4.74450    0    0    0
      47        6        3    -0.27406   -5.21037   -0.83178   -0.83801    0    0    0
      48        6        3    -0.12755   -5.52864   -1.79791   -2.00441    0    0    0
      49        6        1     0.13574   -5.20088    0.20046   -1.19939    0    0    0
      50        6        1     0.13985   -6.04849   -0.90244   -0.14028    0    0    0
      51        6        4    -0.70870   -4.62059   -1.63454   -3.14395    0    0    0
      52        6        1     0.11144   -6.54599   -1.61594   -2.35787    0    0    0
      53        6        1     0.14044   -5.46745   -2.82985   -1.65295    0    0    0
      54        6        2     0.28937   -4.75799   -0.68760   -3.50398    0    0    0
      55        6        2     0.29347   -4.93627   -2.27740   -3.87344    0    0    0
      56        7        3    -0.27406   -3.94472   -1.11886    1.34085    0    0    0
      57        7        3    -0.12755   -4.62960   -2.35843    1.96395    0    0    0
      58        7        1     0.13574   -2.93462   -1.07716    1.75277    0    0    0
      59        7        1     0.13985   -4.45813   -0.21194    1.67271    0    0    0
      60        7        4    -0.70870   -3.93775   -3.59485    1.58403    0    0    0
      61        7        1     0.11144   -5.67139   -2.42651    1.64836    0    0    0
      62        7        1     0.14044   -4.60914   -2.27430    3.05248    0    0    0
      63        7        2     0.28937   -4.03649   -3.69529    0.57146    0    0    0
      64        7        2     0.29347   -4.45335   -4.36839    2.00931    0    0    0
      65        8        3    -0.29815    1.70843    3.90331   -2.16649    0    0    0
      66        8        3    -0.12755    0.18968    4.10209   -2.37867    0    0    0
      67        8        1     0.15983    2.01299    4.37915   -1.23107    0    0    0
      68        8        1     0.13985    2.22828    4.43255   -2.96771    0    0    0
      69        8        4    -0.70870   -0.62777    3.14132   -1.63334    0    0    0
      70        8        1     0.11144   -0.05116    4.00899   -3.43950    0    0    0
      71        8        1     0.14044   -0.08533    5.10849   -2.05488    0    0    0
      72        8        2     0.28937   -0.50064    2.23576   -2.09101    0    0    0
      73        8        2     0.29347   -1.60345    3.40739   -1.78457    0    0    0
      74        9        3    -0.29404    2.75673    1.72212   -2.78396    0    0    0
      75        9        3    -0.12755    1.45798    2.52084   -2.86563    0    0    0
      76        9        1     0.13574    2.82112    0.99064   -3.60023    0    0    0
      77        9        1     0.15983    2.80838    1.17439   -1.83745    0    0    0
      78        9        4    -0.70870    0.30054    1.63477   -2.69035    0    0    0
      79        9        1     0.11144    1.44389    3.09589   -3.81023    0    0    0
      80        9        1     0.14044    1.43303    3.25854   -2.05331    0    0    0
      81        9        2     0.28937    0.25306    0.98119   -3.47214    0    0    0
      82        9        2     0.29347   -0.56020    2.17887   -2.73025    0    0    0


Bonds

       1        4        1        3 
       2        4        1        4 
       3        4        1        5 
       4        3        1        2 
       5        1        2        6 
       6        4        2        7 
       7        4        2        8 
       8        1        6        9 
       9        1        6       16 
      10        4        9       11 
      11        4        9       12 
      12        3        9       10 
      13        1       10       13 
      14        4       10       14 
      15        4       10       15 
      16        1       13       23 
      17        1       13       38 
      18        4       16       18 
      19        4       16       19 
      20        3       16       17 
      21        1       17       20 
      22        4       17       21 
      23        4       17       22 
      24        1       20       65 
      25        1       20       74 
      26        3       23       24 
      27        4       23       26 
      28        4       23       25 
      29        4       24       28 
      30        1       24       27 
      31        4       24       29 
      32        2       27       30 
      33        1       27       31 
      34        4       31       33 
      35        4       31       34 
      36        3       31       32 
      37        1       32       35 
      38        4       32       36 
      39        4       32       37 
      40        1       35       47 
      41        1       35       56 
      42        3       38       39 
      43        4       38       41 
      44        4       38       40 
      45        4       39       43 
      46        1       39       42 
      47        4       39       44 
      48        2       42       45 
      49        2       42       46 
      50        4       47       49 
      51        3       47       48 
      52        4       47       50 
      53        4       48       52 
      54        1       48       51 
      55        4       48       53 
      56        2       51       54 
      57        2       51       55 
      58        4       56       58 
      59        3       56       57 
      60        4       56       59 
      61        4       57       61 
      62        1       57       60 
      63        4       57       62 
      64        2       60       63 
      65        2       60       64 
      66        3       65       66 
      67        4       65       68 
      68        4       65       67 
      69        4       66       70 
      70        1       66       69 
      71        4       66       71 
      72        2       69       72 
      73        2       69       73 
      74        4       74       76 
      75        3       74       75 
      76        4       74       77 
      77        4       75       79 
      78        1       75       78 
      79        4       75       80 
      80        2       78       81 
      81        2       78       82 

Angles

       1        1        2        6       16 
       2        2        3        1        2 
       3        2        4        1        3 
       4        2        4        1        2 
       5        2        5        1        3 
       6        2        5        1        4 
       7        2        5        1        2 
       8        2        6        2        1 
       9        2        6        9       11 
      10        2        6        9       12 
      11        2        6        9       10 
      12        2        6       16       18 
      13        2        6       16       19 
      14        2        6       16       17 
      15        2        7        2        6 
      16        2        7        2        1 
      17        2        8        2        6 
      18        2        8        2        1 
      19        2        8        2        7 
      20        2        9       10       13 
      21        2        9       10       14 
      22        2        9       10       15 
      23        1        9        6        2 
      24        1        9        6       16 
      25        2       11        9       10 
      26        2       12        9       11 
      27        2       12        9       10 
      28        2       14       10       13 
      29        2       15       10       13 
      30        2       15       10       14 
      31        2       18       16       17 
      32        2       19       16       18 
      33        2       19       16       17 
      34        2       20       17       16 
      35        2       21       17       20 
      36        2       21       17       16 
      37        2       22       17       20 
      38        2       22       17       16 
      39        2       22       17       21 
      40        1       23       13       10 
      41        2       24       23       13 
      42        2       25       23       24 
      43        2       25       23       13 
      44        2       26       23       24 
      45        2       26       23       25 
      46        2       26       23       13 
      47        2       27       24       23 
      48        2       28       24       27 
      49        2       28       24       23 
      50        2       29       24       28 
      51        2       29       24       27 
      52        2       29       24       23 
      53        1       30       27       24 
      54        1       31       27       24 
      55        1       31       27       30 
      56        2       32       31       27 
      57        2       33       31       32 
      58        2       33       31       27 
      59        2       34       31       33 
      60        2       34       31       32 
      61        2       34       31       27 
      62        2       35       32       31 
      63        2       36       32       35 
      64        2       36       32       31 
      65        2       37       32       35 
      66        2       37       32       31 
      67        2       37       32       36 
      68        1       38       13       10 
      69        1       38       13       23 
      70        2       39       38       13 
      71        2       40       38       39 
      72        2       40       38       13 
      73        2       41       38       39 
      74        2       41       38       40 
      75        2       41       38       13 
      76        2       42       39       38 
      77        2       43       39       42 
      78        2       43       39       38 
      79        2       44       39       43 
      80        2       44       39       42 
      81        2       44       39       38 
      82        1       45       42       39 
      83        1       46       42       45 
      84        1       46       42       39 
      85        1       47       35       32 
      86        2       48       47       35 
      87        2       49       47       48 
      88        2       49       47       35 
      89        2       50       47       49 
      90        2       50       47       48 
      91        2       50       47       35 
      92        2       51       48       47 
      93        2       52       48       47 
      94        2       52       48       51 
      95        2       53       48       52 
      96        2       53       48       47 
      97        2       53       48       51 
      98        1       54       51       48 
      99        1       55       51       54 
     100        1       55       51       48 
     101        1       56       35       32 
     102        1       56       35       47 
     103        2       57       56       35 
     104        2       58       56       57 
     105        2       58       56       35 
     106        2       59       56       58 
     107        2       59       56       57 
     108        2       59       56       35 
     109        2       60       57       56 
     110        2       61       57       56 
     111        2       61       57       60 
     112        2       62       57       61 
     113        2       62       57       56 
     114        2       62       57       60 
     115        1       63       60       57 
     116        1       64       60       63 
     117        1       64       60       57 
     118        1       65       20       17 
     119        2       66       65       20 
     120        2       67       65       66 
     121        2       67       65       20 
     122        2       68       65       66 
     123        2       68       65       67 
     124        2       68       65       20 
     125        2       69       66       65 
     126        2       70       66       65 
     127        2       70       66       69 
     128        2       71       66       70 
     129        2       71       66       65 
     130        2       71       66       69 
     131        1       72       69       66 
     132        1       73       69       72 
     133        1       73       69       66 
     134        1       74       20       17 
     135        1       74       20       65 
     136        2       75       74       20 
     137        2       76       74       75 
     138        2       76       74       20 
     139        2       77       74       76 
     140        2       77       74       75 
     141        2       77       74       20 
     142        2       78       75       74 
     143        2       79       75       74 
     144        2       79       75       78 
     145        2       80       75       79 
     146        2       80       75       74 
     147        2       80       75       78 
     148        1       81       78       75 
     149        1       82       78       81 
     150        1       82       78       75 

Dihedrals

       1        1        2        6        9       11 
       2        1        2        6        9       12 
       3        1        2        6        9       10 
       4        1        2        6       16       18 
       5        1        2        6       16       19 
       6        1        2        6       16       17 
       7        2        6        2        1        3 
       8        2        6        2        1        4 
       9        2        6        2        1        5 
      10        2        6        9       10       13 
      11        2        6        9       10       14 
      12        2        6        9       10       15 
      13        2        6       16       17       20 
      14        2        6       16       17       21 
      15        2        6       16       17       22 
      16        1        7        2        6       16 
      17        2        7        2        1        3 
      18        2        7        2        1        4 
      19        2        7        2        1        5 
      20        1        8        2        6       16 
      21        2        8        2        1        3 
      22        2        8        2        1        4 
      23        2        8        2        1        5 
      24        1        9       10       13       23 
      25        1        9       10       13       38 
      26        1        9        6        2        1 
      27        1        9        6        2        7 
      28        1        9        6        2        8 
      29        1        9        6       16       18 
      30        1        9        6       16       19 
      31        1        9        6       16       17 
      32        2       13       10        9       11 
      33        2       13       10        9       12 
      34        2       14       10        9       11 
      35        2       14       10        9       12 
      36        2       15       10        9       11 
      37        2       15       10        9       12 
      38        1       16        6        2        1 
      39        1       16        6        9       11 
      40        1       16        6        9       12 
      41        1       16        6        9       10 
      42        2       20       17       16       18 
      43        2       20       17       16       19 
      44        2       21       17       16       18 
      45        2       21       17       16       19 
      46        2       22       17       16       18 
      47        2       22       17       16       19 
      48        1       23       13       10       14 
      49        1       23       13       10       15 
      50        1       24       23       13       10 
      51        1       25       23       13       10 
      52        1       26       23       13       10 
      53        2       27       24       23       26 
      54        2       27       24       23       25 
      55        2       27       24       23       13 
      56        2       28       24       23       26 
      57        2       28       24       23       25 
      58        2       28       24       23       13 
      59        2       29       24       23       26 
      60        2       29       24       23       25 
      61        2       29       24       23       13 
      62        1       30       27       24       28 
      63        1       30       27       24       23 
      64        1       30       27       24       29 
      65        1       31       27       24       28 
      66        1       31       27       24       23 
      67        1       31       27       24       29 
      68        1       32       31       27       24 
      69        1       32       31       27       30 
      70        1       33       31       27       24 
      71        1       33       31       27       30 
      72        1       34       31       27       24 
      73        1       34       31       27       30 
      74        2       35       32       31       33 
      75        2       35       32       31       34 
      76        2       35       32       31       27 
      77        2       36       32       31       33 
      78        2       36       32       31       34 
      79        2       36       32       31       27 
      80        2       37       32       31       33 
      81        2       37       32       31       34 
      82        2       37       32       31       27 
      83        1       38       13       10       14 
      84        1       38       13       10       15 
      85        1       38       13       23       24 
      86        1       38       13       23       26 
      87        1       38       13       23       25 
      88        1       39       38       13       10 
      89        1       39       38       13       23 
      90        1       40       38       13       10 
      91        1       40       38       13       23 
      92        1       41       38       13       10 
      93        1       41       38       13       23 
      94        2       42       39       38       41 
      95        2       42       39       38       40 
      96        2       42       39       38       13 
      97        2       43       39       38       41 
      98        2       43       39       38       40 
      99        2       43       39       38       13 
     100        2       44       39       38       41 
     101        2       44       39       38       40 
     102        2       44       39       38       13 
     103        1       45       42       39       43 
     104        1       45       42       39       38 
     105        1       45       42       39       44 
     106        1       46       42       39       43 
     107        1       46       42       39       38 
     108        1       46       42       39       44 
     109        1       47       35       32       31 
     110        1       47       35       32       36 
     111        1       47       35       32       37 
     112        1       48       47       35       32 
     113        1       49       47       35       32 
     114        1       50       47       35       32 
     115        2       51       48       47       49 
     116        2       51       48       47       50 
     117        2       51       48       47       35 
     118        2       52       48       47       49 
     119        2       52       48       47       50 
     120        2       52       48       47       35 
     121        2       53       48       47       49 
     122        2       53       48       47       50 
     123        2       53       48       47       35 
     124        1       54       51       48       52 
     125        1       54       51       48       47 
     126        1       54       51       48       53 
     127        1       55       51       48       52 
     128        1       55       51       48       47 
     129        1       55       51       48       53 
     130        1       56       35       32       31 
     131        1       56       35       32       36 
     132        1       56       35       32       37 
     133        1       56       35       47       49 
     134        1       56       35       47       48 
     135        1       56       35       47       50 
     136        1       57       56       35       32 
     137        1       57       56       35       47 
     138        1       58       56       35       32 
     139        1       58       56       35       47 
     140        1       59       56       35       32 
     141        1       59       56       35       47 
     142        2       60       57       56       58 
     143        2       60       57       56       59 
     144        2       60       57       56       35 
     145        2       61       57       56       58 
     146        2       61       57       56       59 
     147        2       61       57       56       35 
     148        2       62       57       56       58 
     149        2       62       57       56       59 
     150        2       62       57       56       35 
     151        1       63       60       57       61 
     152        1       63       60       57       56 
     153        1       63       60       57       62 
     154        1       64       60       57       61 
     155        1       64       60       57       56 
     156        1       64       60       57       62 
     157        1       65       20       17       16 
     158        1       65       20       17       21 
     159        1       65       20       17       22 
     160        1       66       65       20       17 
     161        1       67       65       20       17 
     162        1       68       65       20       17 
     163        2       69       66       65       68 
     164        2       69       66       65       67 
     165        2       69       66       65       20 
     166        2       70       66       65       68 
     167        2       70       66       65       67 
     168        2       70       66       65       20 
     169        2       71       66       65       68 
     170        2       71       66       65       67 
     171        2       71       66       65       20 
     172        1       72       69       66       70 
     173        1       72       69       66       65 
     174        1       72       69       66       71 
     175        1       73       69       66       70 
     176        1       73       69       66       65 
     177        1       73       69       66       71 
     178        1       74       20       17       16 
     179        1       74       20       17       21 
     180        1       74       20       17       22 
     181        1       74       20       65       66 
     182        1       74       20       65       68 
     183        1       74       20       65       67 
     184        1       75       74       20       17 
     185        1       75       74       20       65 
     186        1       76       74       20       17 
     187        1       76       74       20       65 
     188        1       77       74       20       17 
     189        1       77       74       20       65 
     190        2       78       75       74       76 
     191        2       78       75       74       77 
     192        2       78       75       74       20 
     193        2       79       75       74       76 
     194        2       79       75       74       77 
     195        2       79       75       74       20 
     196        2       80       75       74       76 
     197        2       80       75       74       77 
     198        2       80       75       74       20 
     199        1       81       78       75       79 
     200        1       81       78       75       74 
     201        1       81       78       75       80 
     202        1       82       78       75       79 
     203        1       82       78       75       74 
     204        1       82       78       75       80 



