Created by /home/tpascal/scripts/createLammpsInput.pl on Thu Nov 26 12:10:56 2015

          34 atoms
          33 bonds
          60 angles
          78 dihedrals
           0 impropers

           4 atom types
           4 bond types
           2 angle types
           2 dihedral types
           0 improper types

           -50.000000  50.000000 xlo xhi
           -50.000000  50.000000 ylo yhi
           -50.000000  50.000000 zlo zhi

Masses

    1   1.0080 # H_     
    2   1.0080 # H___A  
    3  12.0110 # C_3    
    4  14.0067 # N_3    

Pair Coeffs

    1      0.01520000      2.84642140 
    2      0.00010000      2.84642140 
    3      0.09510000      3.47299047 
    4      0.07740000      3.26256020                 

Bond Coeffs

    1             350           1.462 # N_3 C_3 
    2             350           1.022 # N_3 H___A 
    3             350            1.53 # C_3 C_3 
    4             350            1.09 # C_3 H_                 

Angle Coeffs

    1              50           106.7 # X N_3 X 
    2              50         109.471 # X C_3 X                 

Dihedral Coeffs

    1        0.166667               3               0 0 # X N_3 C_3 X 
    2        0.111111               3               0 0 # X C_3 C_3 X 

Atoms

       1        0        3    -0.45170    3.49834    1.50586    0.36954    0    0    0
       2        0        3    -0.10261    1.99960    1.48907    0.73426    0    0    0
       3        0        1     0.15635    3.63168    1.75494   -0.68454    0    0    0
       4        0        1     0.14637    3.94315    0.52738    0.56082    0    0    0
       5        0        1     0.14217    4.01940    2.25167    0.97278    0    0    0
       6        0        4    -0.13058    1.26673    0.49103   -0.10018    0    0    0
       7        0        1     0.13451    1.58607    2.49033    0.58758    0    0    0
       8        0        1     0.10549    1.90688    1.25523    1.79778    0    0    0
       9        1        3    -0.30533    0.84011   -0.79722    0.52607    0    0    0
      10        1        3    -0.10261   -0.40234   -0.69976    1.44683    0    0    0
      11        1        1     0.15635    0.65896   -1.54630   -0.24884    0    0    0
      12        1        1     0.14217    1.67637   -1.17212    1.12176    0    0    0
      13        1        4    -0.24559   -1.65837   -0.73776    0.69262    0    0    0
      14        1        1     0.13451   -0.37260    0.21803    2.03594    0    0    0
      15        1        1     0.10549   -0.40886   -1.54654    2.13663    0    0    0
      16        1        2     0.11501   -2.41944   -0.71957    1.37490    0    0    0
      17        2        3    -0.30533    0.64041    0.95091   -1.37383    0    0    0
      18        2        3    -0.10261   -0.67557    1.75694   -1.18361    0    0    0
      19        2        1     0.15635    0.46836    0.08822   -2.02237    0    0    0
      20        2        1     0.14217    1.36113    1.58021   -1.90324    0    0    0
      21        2        4    -0.35950   -1.81584    1.10654   -1.83980    0    0    0
      22        2        1     0.13451   -0.57021    2.75452   -1.61504    0    0    0
      23        2        1     0.10549   -0.90777    1.87759   -0.12445    0    0    0
      24        2        2     0.11501   -2.65982    1.58131   -1.51155    0    0    0
      25        2        2     0.11391   -1.86094    0.14826   -1.48816    0    0    0
      26        3        3    -0.29045    0.20104   -1.78866    0.19860    0    0    0
      27        3        3    -0.10770   -1.18072   -1.14341    0.27421    0    0    0
      28        3        1     0.13697    0.34739   -2.50709    1.01557    0    0    0
      29        3        1     0.14336    0.99018   -1.03281    0.27775    0    0    0
      30        3        4    -0.53171   -2.23736   -2.13820    0.10832    0    0    0
      31        3        1     0.13858   -1.28820   -0.40865   -0.53561    0    0    0
      32        3        1     0.10679   -1.27605   -0.57352    1.22084    0    0    0
      33        3        2     0.11500   -3.57635   -1.57318    0.22053    0    0    0
      34        3        2     0.28916   -2.12153   -2.86078    0.81795    0    0    0


Bonds

       1        4        1        3 
       2        4        1        4 
       3        4        1        5 
       4        3        1        2 
       5        1        2        6 
       6        4        2        7 
       7        4        2        8 
       8        1        6        9 
       9        1        6       17 
      10        4        9       11 
      11        4        9       12 
      12        3        9       10 
      13        1       10       13 
      14        4       10       14 
      15        4       10       15 
      16        2       13       16 
      17        1       13       26 
      18        4       17       19 
      19        4       17       20 
      20        3       17       18 
      21        1       18       21 
      22        4       18       22 
      23        4       18       23 
      24        2       21       24 
      25        2       21       25 
      26        3       26       27 
      27        4       26       29 
      28        4       26       28 
      29        4       27       31 
      30        1       27       30 
      31        4       27       32 
      32        2       30       33 
      33        2       30       34 

Angles

       1        1        2        6       17 
       2        2        3        1        2 
       3        2        4        1        3 
       4        2        4        1        2 
       5        2        5        1        3 
       6        2        5        1        4 
       7        2        5        1        2 
       8        2        6        2        1 
       9        2        6        9       11 
      10        2        6        9       12 
      11        2        6        9       10 
      12        2        6       17       19 
      13        2        6       17       20 
      14        2        6       17       18 
      15        2        7        2        6 
      16        2        7        2        1 
      17        2        8        2        6 
      18        2        8        2        1 
      19        2        8        2        7 
      20        2        9       10       13 
      21        2        9       10       14 
      22        2        9       10       15 
      23        1        9        6        2 
      24        1        9        6       17 
      25        2       11        9       10 
      26        2       12        9       11 
      27        2       12        9       10 
      28        2       14       10       13 
      29        2       15       10       13 
      30        2       15       10       14 
      31        1       16       13       10 
      32        2       19       17       18 
      33        2       20       17       19 
      34        2       20       17       18 
      35        2       21       18       17 
      36        2       22       18       21 
      37        2       22       18       17 
      38        2       23       18       21 
      39        2       23       18       17 
      40        2       23       18       22 
      41        1       24       21       18 
      42        1       25       21       24 
      43        1       25       21       18 
      44        1       26       13       16 
      45        1       26       13       10 
      46        2       27       26       13 
      47        2       28       26       27 
      48        2       28       26       13 
      49        2       29       26       27 
      50        2       29       26       28 
      51        2       29       26       13 
      52        2       30       27       26 
      53        2       31       27       30 
      54        2       31       27       26 
      55        2       32       27       31 
      56        2       32       27       30 
      57        2       32       27       26 
      58        1       33       30       27 
      59        1       34       30       33 
      60        1       34       30       27 

Dihedrals

       1        1        2        6        9       11 
       2        1        2        6        9       12 
       3        1        2        6        9       10 
       4        1        2        6       17       19 
       5        1        2        6       17       20 
       6        1        2        6       17       18 
       7        2        6        2        1        3 
       8        2        6        2        1        4 
       9        2        6        2        1        5 
      10        2        6        9       10       13 
      11        2        6        9       10       14 
      12        2        6        9       10       15 
      13        2        6       17       18       21 
      14        2        6       17       18       22 
      15        2        6       17       18       23 
      16        1        7        2        6       17 
      17        2        7        2        1        3 
      18        2        7        2        1        4 
      19        2        7        2        1        5 
      20        1        8        2        6       17 
      21        2        8        2        1        3 
      22        2        8        2        1        4 
      23        2        8        2        1        5 
      24        1        9       10       13       16 
      25        1        9       10       13       26 
      26        1        9        6        2        1 
      27        1        9        6        2        7 
      28        1        9        6        2        8 
      29        1        9        6       17       19 
      30        1        9        6       17       20 
      31        1        9        6       17       18 
      32        2       13       10        9       11 
      33        2       13       10        9       12 
      34        2       14       10        9       11 
      35        2       14       10        9       12 
      36        2       15       10        9       11 
      37        2       15       10        9       12 
      38        1       16       13       10       14 
      39        1       16       13       10       15 
      40        1       17        6        2        1 
      41        1       17        6        9       11 
      42        1       17        6        9       12 
      43        1       17        6        9       10 
      44        2       21       18       17       19 
      45        2       21       18       17       20 
      46        2       22       18       17       19 
      47        2       22       18       17       20 
      48        2       23       18       17       19 
      49        2       23       18       17       20 
      50        1       24       21       18       17 
      51        1       24       21       18       22 
      52        1       24       21       18       23 
      53        1       25       21       18       17 
      54        1       25       21       18       22 
      55        1       25       21       18       23 
      56        1       26       13       10       14 
      57        1       26       13       10       15 
      58        1       27       26       13       16 
      59        1       27       26       13       10 
      60        1       28       26       13       16 
      61        1       28       26       13       10 
      62        1       29       26       13       16 
      63        1       29       26       13       10 
      64        2       30       27       26       29 
      65        2       30       27       26       28 
      66        2       30       27       26       13 
      67        2       31       27       26       29 
      68        2       31       27       26       28 
      69        2       31       27       26       13 
      70        2       32       27       26       29 
      71        2       32       27       26       28 
      72        2       32       27       26       13 
      73        1       33       30       27       31 
      74        1       33       30       27       26 
      75        1       33       30       27       32 
      76        1       34       30       27       31 
      77        1       34       30       27       26 
      78        1       34       30       27       32 



