Created by /home/tpascal/scripts/createLammpsInput.pl on Thu Nov 26 12:10:58 2015

          58 atoms
          57 bonds
         105 angles
         141 dihedrals
           0 impropers

           4 atom types
           4 bond types
           2 angle types
           2 dihedral types
           0 improper types

           -50.000000  50.000000 xlo xhi
           -50.000000  50.000000 ylo yhi
           -50.000000  50.000000 zlo zhi

Masses

    1   1.0080 # H_     
    2   1.0080 # H___A  
    3  12.0110 # C_3    
    4  14.0067 # N_3    

Pair Coeffs

    1      0.01520000      2.84642140 
    2      0.00010000      2.84642140 
    3      0.09510000      3.47299047 
    4      0.07740000      3.26256020                 

Bond Coeffs

    1             350           1.462 # N_3 C_3 
    2             350           1.022 # N_3 H___A 
    3             350            1.53 # C_3 C_3 
    4             350            1.09 # C_3 H_                 

Angle Coeffs

    1              50           106.7 # X N_3 X 
    2              50         109.471 # X C_3 X                 

Dihedral Coeffs

    1        0.166667               3               0 0 # X N_3 C_3 X 
    2        0.111111               3               0 0 # X C_3 C_3 X 

Atoms

       1        0        3    -0.45170    5.14395    2.96557   -0.12802    0    0    0
       2        0        3    -0.10261    3.62556    2.97510    0.14235    0    0    0
       3        0        1     0.15635    5.33513    3.04237   -1.19994    0    0    0
       4        0        1     0.14637    5.59538    2.04673    0.24880    0    0    0
       5        0        1     0.14217    5.61390    3.81406    0.37328    0    0    0
       6        0        4    -0.13058    2.93657    1.84570   -0.55105    0    0    0
       7        0        1     0.13451    3.23226    3.93649   -0.19827    0    0    0
       8        0        1     0.10549    3.45468    2.92923    1.21875    0    0    0
       9        1        3    -0.30533    2.90270    0.49207    0.08754    0    0    0
      10        1        3    -0.10261    2.06845    0.40993    1.39465    0    0    0
      11        1        1     0.15635    2.52404   -0.22903   -0.63619    0    0    0
      12        1        1     0.14217    3.92600    0.18480    0.31410    0    0    0
      13        1        4    -0.13058    1.78180   -0.99541    1.83671    0    0    0
      14        1        1     0.13451    1.13290    0.95478    1.29056    0    0    0
      15        1        1     0.10549    2.63473    0.93168    2.16902    0    0    0
      16        2        3    -0.30533    2.00259    2.15263   -1.67613    0    0    0
      17        2        3    -0.10261    0.64627    2.74043   -1.22132    0    0    0
      18        2        1     0.15635    1.81713    1.25053   -2.26466    0    0    0
      19        2        1     0.14217    2.48697    2.86623   -2.34823    0    0    0
      20        2        4    -0.35950   -0.24651    2.93339   -2.36788    0    0    0
      21        2        1     0.13451    0.79763    3.70438   -0.73326    0    0    0
      22        2        1     0.10549    0.15364    2.06791   -0.52196    0    0    0
      23        2        2     0.11501   -1.12974    3.29271   -1.99922    0    0    0
      24        2        2     0.11391   -0.44358    2.00561   -2.75017    0    0    0
      25        3        3    -0.29045    0.93870   -1.90343    0.98763    0    0    0
      26        3        3    -0.10770   -0.40064   -1.32068    0.46560    0    0    0
      27        3        1     0.13697    0.71363   -2.82813    1.52562    0    0    0
      28        3        1     0.14336    1.54141   -2.19857    0.12683    0    0    0
      29        3        4    -0.41671   -1.02982   -2.26146   -0.49534    0    0    0
      30        3        1     0.13858   -0.21911   -0.35414   -0.00233    0    0    0
      31        3        1     0.10679   -1.09007   -1.16510    1.29450    0    0    0
      32        3        2     0.28916   -1.88157   -2.63242   -0.06749    0    0    0
      33        4        3    -0.30953   -1.38886   -1.70851   -1.82430    0    0    0
      34        4        3    -0.10261   -2.62868   -0.78260   -1.79951    0    0    0
      35        4        1     0.15635   -0.53442   -1.16626   -2.23888    0    0    0
      36        4        1     0.14637   -1.58887   -2.54877   -2.49213    0    0    0
      37        4        4    -0.24449   -3.86651   -1.54871   -1.61856    0    0    0
      38        4        1     0.13451   -2.69813   -0.24775   -2.74876    0    0    0
      39        4        1     0.10549   -2.54541   -0.04572   -0.99866    0    0    0
      40        4        2     0.11391   -3.82660   -1.97960   -0.69303    0    0    0
      41        5        3    -0.29045    1.92235   -1.29509    3.29475    0    0    0
      42        5        3    -0.10770    0.82024   -0.69055    4.19962    0    0    0
      43        5        1     0.13697    1.97098   -2.37475    3.45741    0    0    0
      44        5        1     0.14336    2.88695   -0.90403    3.62941    0    0    0
      45        5        4    -0.53171   -0.43217   -1.45005    4.14842    0    0    0
      46        5        1     0.13858    0.62003    0.34598    3.92318    0    0    0
      47        5        1     0.10679    1.16573   -0.70376    5.23518    0    0    0
      48        5        2     0.11500   -0.84762   -1.29509    3.23172    0    0    0
      49        5        2     0.28916   -0.18772   -2.44118    4.20404    0    0    0
      50        6        3    -0.27406   -3.38676   -1.11318   -1.57415    0    0    0
      51        6        3    -0.12755   -4.68551   -0.31446   -1.65582    0    0    0
      52        6        1     0.13574   -3.32237   -1.84466   -2.39042    0    0    0
      53        6        1     0.13985   -2.51420   -0.45433   -1.64967    0    0    0
      54        6        4    -0.70870   -5.84295   -1.20053   -1.48054    0    0    0
      55        6        1     0.11144   -4.69960    0.26059   -2.60042    0    0    0
      56        6        1     0.14044   -4.71046    0.42324   -0.84350    0    0    0
      57        6        2     0.28937   -5.89043   -1.85411   -2.26233    0    0    0
      58        6        2     0.29347   -6.70369   -0.65643   -1.52044    0    0    0


Bonds

       1        4        1        3 
       2        4        1        4 
       3        4        1        5 
       4        3        1        2 
       5        1        2        6 
       6        4        2        7 
       7        4        2        8 
       8        1        6        9 
       9        1        6       16 
      10        4        9       11 
      11        4        9       12 
      12        3        9       10 
      13        1       10       13 
      14        4       10       14 
      15        4       10       15 
      16        1       13       25 
      17        1       13       41 
      18        4       16       18 
      19        4       16       19 
      20        3       16       17 
      21        1       17       20 
      22        4       17       21 
      23        4       17       22 
      24        2       20       23 
      25        2       20       24 
      26        3       25       26 
      27        4       25       28 
      28        4       25       27 
      29        4       26       30 
      30        1       26       29 
      31        4       26       31 
      32        2       29       32 
      33        1       29       33 
      34        4       33       35 
      35        4       33       36 
      36        3       33       34 
      37        1       34       37 
      38        4       34       38 
      39        4       34       39 
      40        2       37       40 
      41        1       37       50 
      42        3       41       42 
      43        4       41       44 
      44        4       41       43 
      45        4       42       46 
      46        1       42       45 
      47        4       42       47 
      48        2       45       48 
      49        2       45       49 
      50        4       50       52 
      51        3       50       51 
      52        4       50       53 
      53        4       51       55 
      54        1       51       54 
      55        4       51       56 
      56        2       54       57 
      57        2       54       58 

Angles

       1        1        2        6       16 
       2        2        3        1        2 
       3        2        4        1        3 
       4        2        4        1        2 
       5        2        5        1        3 
       6        2        5        1        4 
       7        2        5        1        2 
       8        2        6        2        1 
       9        2        6        9       11 
      10        2        6        9       12 
      11        2        6        9       10 
      12        2        6       16       18 
      13        2        6       16       19 
      14        2        6       16       17 
      15        2        7        2        6 
      16        2        7        2        1 
      17        2        8        2        6 
      18        2        8        2        1 
      19        2        8        2        7 
      20        2        9       10       13 
      21        2        9       10       14 
      22        2        9       10       15 
      23        1        9        6        2 
      24        1        9        6       16 
      25        2       11        9       10 
      26        2       12        9       11 
      27        2       12        9       10 
      28        2       14       10       13 
      29        2       15       10       13 
      30        2       15       10       14 
      31        2       18       16       17 
      32        2       19       16       18 
      33        2       19       16       17 
      34        2       20       17       16 
      35        2       21       17       20 
      36        2       21       17       16 
      37        2       22       17       20 
      38        2       22       17       16 
      39        2       22       17       21 
      40        1       23       20       17 
      41        1       24       20       23 
      42        1       24       20       17 
      43        1       25       13       10 
      44        2       26       25       13 
      45        2       27       25       26 
      46        2       27       25       13 
      47        2       28       25       26 
      48        2       28       25       27 
      49        2       28       25       13 
      50        2       29       26       25 
      51        2       30       26       29 
      52        2       30       26       25 
      53        2       31       26       30 
      54        2       31       26       29 
      55        2       31       26       25 
      56        1       32       29       26 
      57        1       33       29       26 
      58        1       33       29       32 
      59        2       34       33       29 
      60        2       35       33       34 
      61        2       35       33       29 
      62        2       36       33       35 
      63        2       36       33       34 
      64        2       36       33       29 
      65        2       37       34       33 
      66        2       38       34       37 
      67        2       38       34       33 
      68        2       39       34       37 
      69        2       39       34       33 
      70        2       39       34       38 
      71        1       40       37       34 
      72        1       41       13       10 
      73        1       41       13       25 
      74        2       42       41       13 
      75        2       43       41       42 
      76        2       43       41       13 
      77        2       44       41       42 
      78        2       44       41       43 
      79        2       44       41       13 
      80        2       45       42       41 
      81        2       46       42       45 
      82        2       46       42       41 
      83        2       47       42       46 
      84        2       47       42       45 
      85        2       47       42       41 
      86        1       48       45       42 
      87        1       49       45       48 
      88        1       49       45       42 
      89        1       50       37       40 
      90        1       50       37       34 
      91        2       51       50       37 
      92        2       52       50       51 
      93        2       52       50       37 
      94        2       53       50       52 
      95        2       53       50       51 
      96        2       53       50       37 
      97        2       54       51       50 
      98        2       55       51       50 
      99        2       55       51       54 
     100        2       56       51       55 
     101        2       56       51       50 
     102        2       56       51       54 
     103        1       57       54       51 
     104        1       58       54       57 
     105        1       58       54       51 

Dihedrals

       1        1        2        6        9       11 
       2        1        2        6        9       12 
       3        1        2        6        9       10 
       4        1        2        6       16       18 
       5        1        2        6       16       19 
       6        1        2        6       16       17 
       7        2        6        2        1        3 
       8        2        6        2        1        4 
       9        2        6        2        1        5 
      10        2        6        9       10       13 
      11        2        6        9       10       14 
      12        2        6        9       10       15 
      13        2        6       16       17       20 
      14        2        6       16       17       21 
      15        2        6       16       17       22 
      16        1        7        2        6       16 
      17        2        7        2        1        3 
      18        2        7        2        1        4 
      19        2        7        2        1        5 
      20        1        8        2        6       16 
      21        2        8        2        1        3 
      22        2        8        2        1        4 
      23        2        8        2        1        5 
      24        1        9       10       13       25 
      25        1        9       10       13       41 
      26        1        9        6        2        1 
      27        1        9        6        2        7 
      28        1        9        6        2        8 
      29        1        9        6       16       18 
      30        1        9        6       16       19 
      31        1        9        6       16       17 
      32        2       13       10        9       11 
      33        2       13       10        9       12 
      34        2       14       10        9       11 
      35        2       14       10        9       12 
      36        2       15       10        9       11 
      37        2       15       10        9       12 
      38        1       16        6        2        1 
      39        1       16        6        9       11 
      40        1       16        6        9       12 
      41        1       16        6        9       10 
      42        2       20       17       16       18 
      43        2       20       17       16       19 
      44        2       21       17       16       18 
      45        2       21       17       16       19 
      46        2       22       17       16       18 
      47        2       22       17       16       19 
      48        1       23       20       17       16 
      49        1       23       20       17       21 
      50        1       23       20       17       22 
      51        1       24       20       17       16 
      52        1       24       20       17       21 
      53        1       24       20       17       22 
      54        1       25       13       10       14 
      55        1       25       13       10       15 
      56        1       26       25       13       10 
      57        1       27       25       13       10 
      58        1       28       25       13       10 
      59        2       29       26       25       28 
      60        2       29       26       25       27 
      61        2       29       26       25       13 
      62        2       30       26       25       28 
      63        2       30       26       25       27 
      64        2       30       26       25       13 
      65        2       31       26       25       28 
      66        2       31       26       25       27 
      67        2       31       26       25       13 
      68        1       32       29       26       30 
      69        1       32       29       26       25 
      70        1       32       29       26       31 
      71        1       33       29       26       30 
      72        1       33       29       26       25 
      73        1       33       29       26       31 
      74        1       34       33       29       26 
      75        1       34       33       29       32 
      76        1       35       33       29       26 
      77        1       35       33       29       32 
      78        1       36       33       29       26 
      79        1       36       33       29       32 
      80        2       37       34       33       35 
      81        2       37       34       33       36 
      82        2       37       34       33       29 
      83        2       38       34       33       35 
      84        2       38       34       33       36 
      85        2       38       34       33       29 
      86        2       39       34       33       35 
      87        2       39       34       33       36 
      88        2       39       34       33       29 
      89        1       40       37       34       33 
      90        1       40       37       34       38 
      91        1       40       37       34       39 
      92        1       41       13       10       14 
      93        1       41       13       10       15 
      94        1       41       13       25       26 
      95        1       41       13       25       28 
      96        1       41       13       25       27 
      97        1       42       41       13       10 
      98        1       42       41       13       25 
      99        1       43       41       13       10 
     100        1       43       41       13       25 
     101        1       44       41       13       10 
     102        1       44       41       13       25 
     103        2       45       42       41       44 
     104        2       45       42       41       43 
     105        2       45       42       41       13 
     106        2       46       42       41       44 
     107        2       46       42       41       43 
     108        2       46       42       41       13 
     109        2       47       42       41       44 
     110        2       47       42       41       43 
     111        2       47       42       41       13 
     112        1       48       45       42       46 
     113        1       48       45       42       41 
     114        1       48       45       42       47 
     115        1       49       45       42       46 
     116        1       49       45       42       41 
     117        1       49       45       42       47 
     118        1       50       37       34       33 
     119        1       50       37       34       38 
     120        1       50       37       34       39 
     121        1       51       50       37       40 
     122        1       51       50       37       34 
     123        1       52       50       37       40 
     124        1       52       50       37       34 
     125        1       53       50       37       40 
     126        1       53       50       37       34 
     127        2       54       51       50       52 
     128        2       54       51       50       53 
     129        2       54       51       50       37 
     130        2       55       51       50       52 
     131        2       55       51       50       53 
     132        2       55       51       50       37 
     133        2       56       51       50       52 
     134        2       56       51       50       53 
     135        2       56       51       50       37 
     136        1       57       54       51       55 
     137        1       57       54       51       50 
     138        1       57       54       51       56 
     139        1       58       54       51       55 
     140        1       58       54       51       50 
     141        1       58       54       51       56 



