ITEM: TIMESTEP
6000
ITEM: NUMBER OF ATOMS
10140
ITEM: BOX BOUNDS pp pp pp
0 49.2985
0 50.6
0 45.3233
ITEM: ATOMS id type xu yu zu 
3589 5 2.80216 4.70774 2.72821 
3590 4 1.81042 4.83225 2.75871 
3591 4 3.13992 4.94418 1.81716 
3607 5 5.18238 4.42411 3.96537 
3608 4 5.28103 5.23061 4.54832 
3609 4 4.28138 4.43453 3.53167 
3697 5 3.26666 8.03936 4.38433 
3699 4 2.36682 7.61724 4.49432 
3730 5 5.38968 6.80667 5.61358 
3731 4 4.96403 6.27922 6.34884 
3732 4 4.68795 7.32798 5.12798 
3766 5 2.65267 3.29957 6.36969 
3768 4 2.55899 2.98899 5.42377 
3811 5 4.49906 0.104553 4.78899 
3813 4 3.64826 0.441429 4.38568 
3865 5 3.7832 8.04181 1.60735 
3866 4 3.83408 7.17958 1.1034 
3867 4 3.65769 7.85186 2.58109 
3958 5 0.670303 7.05304 4.44512 
3967 5 3.46336 5.65404 0.255105 
3971 4 3.35085 2.01129 0.233283 
4033 5 2.42086 1.1646 3.20757 
4034 4 3.09253 1.4099 2.5085 
4035 4 1.65439 1.80594 3.17299 
4048 5 4.61142 1.44588 1.26736 
4049 4 4.8684 0.547307 1.62306 
4050 4 5.39382 1.85454 0.797414 
4052 4 5.8171 1.36475 4.86111 
4053 4 5.97477 2.92479 4.405 
3753 4 3.65449 4.55108 6.98437 
3767 4 2.9509 2.53649 6.94307 
4656 4 50.8001 4.69789 6.5756 
4655 4 50.1554 5.99544 5.82238 
4654 5 50.2244 5.50718 6.69234 
3751 5 4.18651 5.26543 7.43896 
3529 5 7.92496 51.0608 21.2697 
3939 4 0.272678 7.35127 7.17184 
4614 4 49.599 5.66628 1.39123 
3960 4 0.469223 6.48598 3.64637 
6849 4 50.2869 50.6451 2.90146 
4457 4 23.0022 4.88476 0.0713199 
2697 4 20.6782 15.9429 20.8323 
3855 4 6.27495 4.44209 2.58775 
3915 4 6.84867 3.34297 0.620519 
3677 4 6.32203 8.12398 6.63861 
3853 5 6.90955 4.54966 1.82244 
3905 4 6.78368 5.70187 0.482538 
3664 5 11.3151 4.76638 2.76757 
3665 4 10.4279 5.21522 2.66089 
3666 4 11.9533 5.39198 3.21622 
3724 5 8.92794 0.810632 4.15294 
3725 4 8.04662 1.26764 4.27305 
3726 4 8.91962 0.289589 3.29945 
3734 4 12.4427 7.41868 4.12662 
3754 5 8.99129 6.08033 2.65777 
3755 4 8.6634 6.17381 3.59784 
3756 4 8.76806 6.9081 2.14303 
3760 5 8.28515 8.17793 1.02889 
3761 4 7.71581 7.60778 0.43662 
3762 4 9.15138 8.37464 0.569598 
3778 5 11.2274 2.40931 4.21974 
3779 4 10.3455 1.93908 4.25121 
3780 4 11.1299 3.26734 3.71548 
3841 5 7.99235 6.06096 5.09558 
3842 4 7.07089 6.3685 5.33293 
3843 4 8.13915 5.13947 5.45516 
3848 4 12.4041 2.48896 5.50042 
3854 4 7.74515 4.99608 2.14254 
4036 5 8.40715 3.51074 6.0706 
4037 4 7.66859 3.07382 5.55714 
4038 4 8.91606 2.81603 6.5789 
4051 5 6.46506 2.11422 4.72531 
7266 4 12.1235 4.40781 46.5243 
3749 4 8.81785 4.8457 7.26901 
3576 4 12.4321 8.38209 6.12781 
3649 5 9.13971 1.25824 7.56042 
3651 4 8.50256 0.670308 7.06205 
3575 4 12.9433 7.08917 6.98436 
3736 5 12.8468 5.37262 6.4891 
3737 4 12.9063 5.73418 5.55865 
3738 4 12.9564 4.37887 6.46818 
3847 5 13.0757 2.62879 6.22799 
3909 4 12.3664 1.45917 3.30261 
3574 5 12.9514 8.08766 6.93006 
3733 5 12.9943 6.59589 3.9898 
4041 4 13.3766 1.55055 7.54739 
3610 5 15.6696 3.30724 5.72583 
3611 4 16.3531 2.5868 5.84337 
3612 4 15.6351 3.87173 6.55056 
3735 4 13.7908 6.81827 3.42745 
3781 5 15.1424 7.18124 2.30171 
3782 4 15.5111 8.09418 2.12678 
3783 4 14.8571 6.76588 1.43796 
3835 5 16.4913 3.12175 3.12861 
3836 4 15.822 3.1316 2.38566 
3837 4 16.0319 3.32326 3.99371 
3849 4 13.9829 2.75032 5.82527 
3907 5 13.0926 1.05908 2.74349 
3908 4 12.6919 0.629879 1.93404 
3949 5 14.6935 2.53745 1.16215 
3950 4 15.0398 1.9609 0.422082 
3951 4 14.0931 1.99764 1.75213 
3953 4 17.5259 8.02603 4.94015 
3973 5 17.0445 6.56981 4.22931 
3974 4 17.0594 5.6592 4.64232 
3975 4 16.3036 6.6199 3.55953 
3979 5 18.5744 4.77444 6.02622 
3989 4 18.1328 3.44003 2.83044 
4027 5 17.4133 1.28891 6.24542 
4028 4 17.4823 0.483132 5.65722 
4042 5 15.7223 0.396565 3.23345 
4043 4 16.2441 1.24945 3.25259 
4044 4 14.7462 0.604317 3.16999 
7264 5 12.7951 4.3047 45.7906 
7265 4 13.4891 3.63914 46.0651 
3962 4 17.7827 6.23077 6.85059 
4029 4 18.3284 1.56956 6.53492 
3980 4 18.616 4.43209 6.96487 
3861 4 16.1395 7.8897 7.50134 
3961 5 17.3883 6.69504 7.64361 
4690 5 49.4212 2.58496 3.05254 
3985 5 18.7174 1.43682 0.901764 
3987 4 18.735 2.22779 1.51336 
4448 4 18.6304 6.42445 3.4961 
3988 5 19.081 3.59247 2.55148 
3981 4 19.4473 4.60241 5.56964 
3986 4 19.559 1.41393 0.362095 
3990 4 19.2843 4.57107 2.5827 
4078 5 22.2063 6.01173 3.16306 
4079 4 21.2114 5.9906 3.26223 
4080 4 22.449 5.86081 2.20477 
4096 5 24.1939 4.39518 4.37076 
4097 4 24.0654 4.49151 5.35777 
4098 4 23.4451 4.85241 3.89093 
4186 5 22.2547 8.22713 4.90966 
4188 4 22.2433 7.4309 4.30477 
4219 5 24.399 7.16993 6.26064 
4220 4 24.1266 6.28771 6.64471 
4221 4 23.6176 7.58681 5.79628 
4255 5 21.3058 3.6742 5.85497 
4257 4 21.4781 3.33834 4.92897 
4355 4 22.6399 7.48368 0.283059 
4447 5 19.4674 6.28573 2.96674 
4449 4 19.5657 7.02367 2.29906 
4456 5 22.4213 5.60629 0.447994 
4458 4 21.4845 5.48526 0.119823 
4460 4 21.812 1.27205 0.314796 
4522 5 21.5147 2.62884 3.36636 
4523 4 22.0135 2.07919 2.69624 
4524 4 20.6328 2.90268 2.98266 
4537 5 22.9841 0.980576 1.59222 
4538 4 23.1068 0.171729 2.1673 
4539 4 23.8788 1.35382 1.34675 
4291 5 19.75 8.23834 1.07143 
4292 4 20.7109 8.39731 0.844376 
4240 5 23.5705 4.65782 7.07226 
4242 4 22.6793 4.33732 6.75127 
4256 4 20.7687 2.99854 6.36001 
4211 4 24.4566 0.801501 6.98469 
4354 5 22.3179 8.43025 0.266021 
4228 5 19.7615 2.02264 7.33121 
4047 4 2.4304 16.6169 4.80294 
3640 5 1.34289 12.3847 1.97975 
3641 4 2.11565 12.7999 1.49967 
3642 4 1.02887 13.0012 2.70175 
3698 4 3.15937 9.02624 4.26366 
3772 5 5.11276 12.1422 4.54245 
3773 4 4.24463 11.6537 4.45448 
3774 4 5.85037 11.5813 4.16638 
3803 4 2.47055 8.78731 0.645123 
3804 4 1.087 9.59204 0.321408 
3829 5 2.99481 10.6606 3.56774 
3830 4 2.15842 11.0958 3.23449 
3831 4 3.65995 10.603 2.82325 
3862 5 4.97014 10.4954 1.71014 
3863 4 5.90604 10.3869 2.04528 
3864 4 4.60552 9.60287 1.44481 
3874 5 0.610226 13.8313 4.18522 
3876 4 1.21163 14.6297 4.21365 
3919 5 3.79723 13.1473 0.916964 
3920 4 4.15845 13.7345 1.6414 
3921 4 4.25106 12.2569 0.952195 
3927 4 6.07836 13.1057 5.76514 
4045 5 2.30407 16.021 4.00988 
4046 4 1.88205 16.5402 3.26669 
4060 5 4.5351 14.5205 3.23888 
4061 4 3.73088 15.017 3.5655 
4062 4 4.69881 13.7279 3.82632 
3711 4 6.10535 16.527 6.72943 
4758 4 49.5596 11.3163 1.14499 
3828 4 6.08327 15.322 2.90233 
3925 5 6.68887 13.4029 6.49931 
3926 4 6.70759 12.7085 7.21873 
3785 4 6.76438 10.3982 7.84663 
3676 5 6.8891 8.74807 7.17615 
1772 4 10.6253 6.9722 22.5842 
3710 4 6.78116 15.0609 6.97518 
3885 4 9.63886 11.3969 0.917874 
3626 4 11.971 11.909 4.47351 
3627 4 12.0918 11.5917 6.07081 
3661 5 11.5544 8.87272 4.6285 
3662 4 10.5639 8.94668 4.74425 
3663 4 11.9606 9.78639 4.64157 
3691 5 11.4004 11.843 7.66678 
3787 5 10.5638 12.5235 3.61072 
3788 4 10.1309 13.2115 3.02823 
3789 4 10.0243 12.4055 4.4444 
3799 5 9.2363 12.229 5.97221 
3800 4 9.89833 12.2254 6.72167 
3801 4 8.44262 12.7795 6.23124 
3805 5 8.82226 9.64583 5.25137 
3806 4 8.97686 10.5901 5.54194 
3807 4 8.24903 9.17939 5.92504 
3826 5 6.92272 15.7114 2.52326 
3827 4 6.80683 15.8614 1.54139 
3838 5 9.13329 14.1345 1.97204 
3839 4 8.88823 13.3392 1.41747 
3840 4 8.30689 14.6495 2.19976 
3883 5 8.65685 11.5843 0.941286 
3884 4 8.23023 11.0373 1.66159 
3886 5 11.3653 11.175 1.35002 
3887 4 11.1178 11.5769 2.23161 
3888 4 12.3248 11.374 1.15058 
3889 5 7.48374 9.9779 2.84639 
3890 4 7.94577 9.82167 3.71939 
3891 4 7.70598 9.2357 2.21414 
3894 4 11.1413 9.54257 0.527139 
3918 4 8.22955 16.5948 3.37695 
3713 4 10.4312 15.3395 1.98561 
3709 5 6.82647 16.0311 7.21322 
3712 5 11.0746 16.0899 2.13707 
3714 4 11.9628 15.7181 2.40696 
3625 5 12.4897 11.4142 5.17071 
3882 4 16.9842 16.116 1.63274 
3860 4 14.637 8.47225 7.23719 
3790 5 16.1744 9.66793 1.46711 
3655 5 15.9673 13.8175 5.83375 
3656 4 15.8097 12.8642 6.09121 
3657 4 15.6392 14.4182 6.56278 
3670 5 14.9602 11.3215 6.39441 
3671 4 14.1944 11.306 5.75149 
3672 4 15.2215 10.384 6.62422 
3688 5 14.0496 11.7074 1.244 
3689 4 14.6422 10.9299 1.03357 
3690 4 14.3583 12.1425 2.08977 
3716 4 14.3257 16.4098 6.9792 
3791 4 16.8496 9.81099 0.743528 
3792 4 16.5061 10.0756 2.31787 
3793 5 17.868 14.8885 4.19641 
3794 4 17.1815 14.4832 4.80007 
3795 4 17.5465 14.8464 3.25042 
3817 5 13.5042 14.8847 2.69048 
3818 4 13.7577 14.0852 3.23507 
3819 4 13.9143 14.8124 1.78134 
3823 5 15.1474 12.6496 3.53478 
3824 4 15.3423 13.2509 4.30965 
3825 4 15.8664 11.9587 3.45987 
3880 5 16.9949 15.117 1.67673 
3881 4 16.2383 14.7514 1.13456 
3934 5 17.256 10.8548 3.64634 
3935 4 18.1469 11.2362 3.39954 
3936 4 17.3762 10.1571 4.35261 
3946 5 18.474 10.4592 0.0668075 
3952 5 17.659 8.86637 5.46562 
3954 4 16.9663 8.92307 6.18467 
3859 5 15.6055 8.712 7.30476 
4055 4 18.3803 16.5029 4.38377 
3797 4 14.3809 12.1097 7.77566 
3708 4 14.0448 16.4207 3.25392 
7084 5 14.6831 14.4251 45.6329 
3948 4 18.894 11.2815 0.450723 
4356 4 23.0942 9.04871 0.387813 
3931 5 19.904 12.8431 0.617978 
3933 4 20.8974 12.9521 0.582057 
4129 5 19.794 11.8064 3.10651 
4130 4 19.7822 12.234 2.20259 
4131 4 19.98 12.5011 3.80139 
4187 4 22.2635 9.0628 4.3605 
4192 5 20.5851 13.1427 7.50657 
4193 4 20.3302 13.3699 6.56664 
4261 5 23.9502 12.0248 4.78852 
4262 4 23.252 11.4786 4.32564 
4293 4 19.2012 9.01406 0.759944 
4318 5 22.1885 10.4849 3.25632 
4319 4 21.2563 10.8448 3.21922 
4320 4 22.5351 10.3606 2.32655 
4351 5 24.0111 10.6521 0.716739 
2051 4 24.183 10.7052 21.4711 
4363 5 20.2416 13.8619 4.84879 
4364 4 19.3333 14.2317 4.65291 
4365 4 20.9363 14.5404 4.6102 
4408 5 22.6512 13.0741 0.826463 
4409 4 23.0507 13.5773 1.59275 
4410 4 23.1031 12.1863 0.739017 
4426 5 20.1726 8.69983 6.76823 
4427 4 19.344 8.78541 6.21503 
4428 4 20.9577 8.5393 6.16997 
4534 5 21.9377 15.9717 4.33869 
4535 4 21.6807 16.7022 3.70595 
4549 5 23.7383 14.242 3.15251 
4550 4 23.1209 14.9022 3.58022 
4551 4 23.8226 13.4362 3.73876 
4274 4 23.4572 12.3208 6.56467 
4536 4 21.7337 16.2553 5.27569 
4520 4 20.3876 16.5972 7.35823 
4194 4 21.5772 13.0321 7.56547 
4273 5 23.2418 12.7386 7.44731 
3917 4 9.84355 16.8134 3.25912 
1913 4 3.90155 0.351525 21.2245 
6230 4 1.94608 51.394 8.1769 
3996 4 2.56703 0.440697 11.5623 
3977 4 4.28259 1.9843 8.31764 
4665 4 50.0083 8.30706 11.1004 
867 3 1.91664 0.79062 15 
868 3 4.65545 2.37187 15 
921 3 1.91664 3.95312 15 
922 3 4.65545 5.53437 15 
975 3 1.91664 7.11562 15 
3592 5 1.46787 8.22936 9.59468 
3593 4 1.95472 7.35587 9.59674 
3594 4 0.927161 8.3076 8.75712 
3601 5 2.45237 3.59352 11.0635 
3602 4 2.80665 2.73519 11.4347 
3603 4 1.55097 3.43548 10.6604 
3613 5 2.90502 5.96284 9.75061 
3614 4 3.75859 6.34342 10.1064 
3615 4 2.67748 5.12829 10.2524 
3622 5 5.63015 1.73457 11.923 
3623 4 5.63177 2.71653 11.7339 
3624 4 4.68767 1.41643 12.0256 
3634 5 5.04194 4.48049 11.7419 
3635 4 5.15398 5.39869 11.3619 
3636 4 4.10613 4.16589 11.5829 
3682 5 5.28473 6.95934 10.6264 
3683 4 6.14062 6.98317 10.1098 
3684 4 5.16665 7.82336 11.1158 
3721 5 5.50283 3.08302 8.67913 
3722 4 5.3099 3.99177 8.30904 
3723 4 6.44173 3.05529 9.0222 
2037 4 20.9881 9.00988 21.0126 
3741 4 0.500366 1.75739 9.34281 
3752 4 3.66872 5.62309 8.21612 
3976 5 3.60429 1.28727 8.08512 
3978 4 3.90989 0.398089 8.42566 
3994 5 3.00279 1.15508 12.1098 
3995 4 2.56904 1.19639 13.0099 
6229 5 1.07533 50.9149 8.28742 
2055 4 21.4032 6.12755 22.5769 
3678 4 7.19782 8.28571 8.00736 
3650 4 9.98386 0.754591 7.74415 
1878 4 13.5068 11.3375 22.6346 
873 3 7.39425 0.79062 15 
874 3 10.1331 2.37187 15 
927 3 7.39425 3.95312 15 
928 3 10.1331 5.53437 15 
981 3 7.39425 7.11562 15 
3604 5 11.5068 5.14245 8.84714 
3605 4 11.5738 4.1982 9.16947 
3606 4 12.0383 5.24614 8.00644 
3616 5 7.77774 7.35579 9.39134 
3617 4 8.36533 7.56661 10.1726 
3618 4 8.15941 6.5815 8.88656 
3727 5 8.20973 3.0122 9.41338 
3728 4 8.46523 3.92307 9.08929 
3729 4 8.58632 2.32113 8.79644 
3745 5 11.8564 7.19545 10.7011 
3747 4 11.8147 6.40729 10.0871 
3748 5 8.92228 5.2991 8.15418 
3750 4 9.89287 5.35223 8.38901 
3757 5 11.8376 2.57788 9.80207 
3758 4 12.2599 3.10676 10.5383 
3759 4 12.5217 1.97704 9.38859 
3764 4 8.77763 6.73468 12.0454 
3844 5 7.77939 5.27782 12.1706 
3845 4 8.28497 4.4211 12.2727 
3846 4 6.80045 5.08222 12.1123 
3895 5 8.30482 2.48697 12.0301 
3896 4 8.31196 2.71656 11.0568 
3897 4 7.41428 2.10405 12.2757 
4004 4 11.8991 0.138848 11.7881 
4021 5 10.3043 0.85149 11.3559 
4022 4 9.61044 1.43852 11.7729 
4023 4 10.8217 1.37574 10.6795 
3746 4 10.9873 7.28557 11.1874 
3763 5 9.40992 7.42697 11.6976 
3765 4 9.14029 8.32687 12.0404 
3832 5 13.0256 4.06703 11.7081 
3834 4 12.6028 4.34489 12.5706 
6573 4 18.7095 51.321 11.7491 
879 3 12.8719 0.79062 15 
880 3 15.6107 2.37187 15 
885 3 18.3495 0.79062 15 
933 3 12.8719 3.95312 15 
934 3 15.6107 5.53437 15 
939 3 18.3495 3.95312 15 
987 3 12.8719 7.11562 15 
993 3 18.3495 7.11562 15 
3620 4 18.2901 7.05272 12.0204 
3631 5 15.7818 4.55346 8.19168 
3632 4 15.3155 4.79614 9.04233 
3633 4 16.4099 5.28792 7.93467 
3647 4 18.3777 4.19451 9.50292 
3673 5 15.0274 5.5326 10.6381 
3674 4 14.9061 6.50244 10.8496 
3675 4 14.2577 5.01209 11.0079 
3833 4 13.6746 3.32566 11.8786 
3856 5 17.5242 4.38698 11.0673 
3857 4 16.5884 4.72439 10.9647 
3858 4 18.09 5.09616 11.4878 
3963 4 18.1075 6.87969 8.3135 
3964 5 17.0485 8.24145 12.0286 
3965 4 16.0757 8.05805 11.8874 
3982 5 17.2823 1.63787 11.167 
3983 4 17.4949 2.60334 11.3176 
3984 4 16.9096 1.51823 10.2468 
4006 5 14.6409 2.05803 11.9311 
4007 4 14.0475 1.25351 11.9554 
4008 4 15.5933 1.76705 11.8405 
4024 5 16.1961 1.84459 8.65403 
4025 4 16.642 1.50332 7.82651 
4026 4 16.078 2.83515 8.58463 
4039 5 13.6293 0.970864 8.32205 
4040 4 14.5584 1.19463 8.61669 
3902 4 13.4121 7.74499 11.2385 
3901 5 14.3409 8.09895 11.3483 
6522 4 24.5144 50.9843 9.27475 
3646 5 18.9474 4.29788 8.68756 
3648 4 19.4629 5.15268 8.7473 
6571 5 19.6464 51.0123 11.9132 
4212 4 24.3953 2.24857 7.73892 
886 3 21.0883 2.37187 15 
891 3 23.8271 0.79062 15 
940 3 21.0883 5.53437 15 
945 3 23.8271 3.95312 15 
999 3 23.8271 7.11562 15 
3619 5 19.0676 6.4325 11.9157 
3621 4 19.9087 6.96519 11.8222 
4081 5 19.9169 6.9079 8.82957 
4082 4 20.4823 7.13263 9.62318 
4083 4 20.112 7.55048 8.0886 
4090 5 21.1175 4.52395 10.9472 
4091 4 21.1507 3.5445 10.7483 
4092 4 20.2733 4.73554 11.4398 
4102 5 21.6467 7.20937 11.0266 
4103 4 22.5873 7.36562 10.7253 
4104 4 21.4826 6.22652 11.1108 
4111 5 23.6247 2.66928 11.7713 
4112 4 23.8088 3.43517 11.1553 
4113 4 24.4862 2.22571 12.0184 
4123 5 23.6322 4.77277 9.87042 
4124 4 23.9792 5.6872 10.0787 
4125 4 22.6967 4.68535 10.2128 
4171 5 24.318 7.40949 10.3989 
4173 4 24.4363 8.1211 11.0914 
4232 4 19.6456 6.71833 0.175651 
4229 4 19.5507 2.73218 8.00359 
4230 4 20.1917 1.24547 7.7905 
4241 4 23.5864 4.65232 8.07212 
4467 4 21.2746 0.513287 9.29154 
4483 5 21.454 1.77922 10.5246 
4484 4 22.2732 1.99122 11.0574 
4485 4 20.79 1.30978 11.1066 
3703 5 2.46772 15.2174 8.07236 
3704 4 2.49462 14.2871 7.70655 
4612 5 49.3832 5.36359 2.31957 
3923 4 1.36483 16.5013 7.96221 
3771 4 5.10775 9.02031 12.9618 
3705 4 3.24782 15.3585 8.68187 
976 3 4.65545 8.69687 15 
1029 3 1.91664 10.2781 15 
1030 3 4.65545 11.8594 15 
1083 3 1.91664 13.4406 15 
1084 3 4.65545 15.0219 15 
1137 3 1.91664 16.6031 15 
3580 5 4.59833 12.1368 9.74477 
3581 4 3.90743 11.4445 9.95304 
3582 4 4.71505 12.7393 10.5343 
3586 5 4.36036 15.6673 9.99025 
3587 4 4.51145 14.8737 10.5797 
3588 4 5.20493 16.1986 9.92359 
3629 4 5.94427 12.2935 12.215 
3637 5 4.80649 13.7848 12.0479 
3638 4 5.70205 14.2295 12.0635 
3639 4 4.25486 14.1195 12.8119 
3700 5 0.681228 11.7385 10.6677 
3702 4 1.54966 11.2632 10.8089 
3719 4 0.46557 13.4263 10.8282 
3720 4 0.910437 14.9939 10.934 
3786 4 5.95391 11.5021 8.73612 
3955 5 2.8927 10.2312 10.7866 
3956 4 3.67118 9.85543 11.2893 
3957 4 2.42224 9.4942 10.3013 
4012 5 1.97641 16.4938 11.2149 
4014 4 2.75813 16.2834 10.6278 
3769 5 5.1333 9.29663 12.0011 
3770 4 5.75335 10.0739 11.8942 
3692 4 12.1007 12.406 8.10569 
3784 5 6.78155 11.3332 8.20087 
3693 4 11.3218 10.9714 8.15061 
3654 4 12.13 16.2501 9.13326 
3628 5 6.63585 11.6103 11.9805 
982 3 10.1331 8.69687 15 
1035 3 7.39425 10.2781 15 
1036 3 10.1331 11.8594 15 
1089 3 7.39425 13.4406 15 
1090 3 10.1331 15.0219 15 
1143 3 7.39425 16.6031 15 
3577 5 11.7266 9.4161 9.01513 
3578 4 11.6657 8.72332 9.73369 
3579 4 12.2027 9.03388 8.22311 
3598 5 10.8126 11.4506 10.8622 
3599 4 11.2484 10.7342 10.3175 
3600 4 11.4934 12.1383 11.1143 
3630 4 7.25065 11.9834 11.2856 
3679 5 8.3485 12.5088 10.1313 
3680 4 7.96542 12.0827 9.31169 
3681 4 9.29079 12.1991 10.2585 
3808 5 10.0526 14.7555 11.7933 
3809 4 9.99065 14.7739 12.7912 
3810 4 10.8609 14.2345 11.5191 
3814 5 12.5857 13.5378 11.324 
3898 5 8.85758 9.9949 12.1525 
3899 4 9.60386 10.5484 11.7828 
3900 4 8.02638 10.5484 12.2049 
3997 5 7.19154 14.9174 11.7797 
3998 4 7.08216 15.7108 11.1809 
3999 4 8.08163 14.4935 11.6122 
4016 4 6.98937 16.5439 8.86346 
4020 4 9.81278 16.3202 11.0074 
3685 5 14.2781 16.6496 11.6144 
3815 4 13.4847 13.3169 11.7024 
3816 4 12.6796 14.2665 10.6456 
3966 4 17.1869 9.22299 12.1606 
3798 4 14.0513 11.952 9.36724 
988 3 15.6107 8.69687 15 
1041 3 12.8719 10.2781 15 
1042 3 15.6107 11.8594 15 
1047 3 18.3495 10.2781 15 
1095 3 12.8719 13.4406 15 
1096 3 15.6107 15.0219 15 
1101 3 18.3495 13.4406 15 
1149 3 12.8719 16.6031 15 
1155 3 18.3495 16.6031 15 
3583 5 14.9788 15.0758 8.08446 
3584 4 14.7314 14.147 8.3604 
3585 4 15.8453 15.3313 8.51318 
3643 5 16.6789 15.2752 11.5275 
3644 4 15.8555 15.7796 11.7875 
3645 4 16.9901 15.5855 10.6292 
3652 5 12.8065 15.6508 9.56131 
3653 4 13.5448 15.4651 8.913 
3658 5 14.554 10.6728 10.4992 
3659 4 15.3978 10.4975 9.99186 
3660 4 14.7012 11.4257 11.1407 
3667 5 17.3304 11.0298 11.7782 
3668 4 17.1418 10.7271 10.8439 
3669 4 18.2967 11.2734 11.861 
3687 4 13.7855 16.1561 10.8976 
3775 5 16.9018 10.2862 9.18294 
3776 4 17.8471 10.476 8.91742 
3777 4 16.4783 9.68789 8.50277 
3796 5 14.0343 12.5786 8.58807 
3868 5 17.3491 16.0875 8.96539 
3869 4 17.1823 16.78 8.26346 
3870 4 18.3119 15.8179 8.94537 
3903 4 14.3636 9.06306 11.0837 
3943 5 15.3372 12.9088 11.8634 
3944 4 16.0265 12.2228 12.0963 
3945 4 15.7744 13.8038 11.7749 
4209 4 18.3855 14.4299 11.9123 
4446 4 21.7593 8.97295 11.607 
3940 5 19.5862 10.8089 8.60091 
994 3 21.0883 8.69687 15 
1048 3 21.0883 11.8594 15 
1053 3 23.8271 10.2781 15 
1102 3 21.0883 15.0219 15 
1107 3 23.8271 13.4406 15 
1161 3 23.8271 16.6031 15 
3941 4 19.9046 10.055 8.02621 
3942 4 19.902 11.6768 8.21738 
4069 5 23.3418 11.0264 9.49631 
4070 4 22.7157 10.6022 10.1506 
4071 4 24.1954 11.2658 9.95891 
4663 5 49.4877 8.19453 11.9467 
3696 4 17.8511 0.0468438 0.974257 
4077 4 24.1258 13.9997 8.28197 
4126 5 24.5807 14.3295 11.45 
4128 4 23.6015 14.4603 11.6055 
4189 5 19.9314 11.6111 11.2573 
4190 4 19.8186 11.3576 10.2966 
4191 4 20.742 11.1582 11.6286 
4207 5 19.359 14.2074 11.9636 
4208 4 19.4946 13.2466 11.7221 
4275 4 23.2781 12.0418 8.16365 
4411 5 19.9992 15.594 8.72883 
4412 4 20.2749 14.6481 8.55759 
4413 4 20.4638 15.9337 9.54656 
4444 5 22.1494 9.88587 11.7269 
4445 4 23.0719 9.80713 12.1048 
4501 5 21.9873 14.9872 11.7333 
4502 4 21.1116 14.5605 11.9593 
4503 4 21.829 15.9161 11.3987 
1827 4 7.49783 5.30207 22.183 
865 1 1.00371 2.37187 16.5808 
866 1 3.74251 0.79062 16.5808 
869 2 1.91664 0.79062 18.1617 
870 2 4.65545 2.37187 18.1617 
919 1 1.00371 5.53437 16.5808 
920 1 3.74251 3.95312 16.5808 
923 2 1.91664 3.95312 18.1617 
924 2 4.65545 5.53437 18.1617 
974 1 3.74251 7.11562 16.5808 
977 2 1.91664 7.11562 18.1617 
9402 4 16.0091 50.6103 45.4234 
1849 5 5.39938 6.38292 20.9746 
1850 4 4.77416 5.60464 20.9165 
1851 4 5.25606 6.86169 21.8407 
1855 5 3.77841 4.32646 21.3553 
1856 4 4.49742 3.63235 21.32 
1857 4 2.89017 3.8945 21.199 
1884 4 1.47239 6.6484 21.3409 
1885 5 1.60523 2.77977 21.1964 
1886 4 2.34831 2.1314 21.0307 
1887 4 0.742504 2.28214 21.2863 
1882 5 0.63478 6.21396 21.672 
1912 5 3.84736 1.34748 21.1529 
1914 4 4.76594 1.72333 21.0306 
1858 5 6.14058 2.77081 21.301 
1831 5 2.7657 7.88211 21.1843 
1832 4 3.21637 7.90015 22.0768 
1968 4 23.7062 0.156248 21.5642 
6153 4 12.1326 50.6768 8.01075 
1768 5 9.35654 2.79669 21.2033 
1769 4 8.79004 3.61783 21.134 
1771 5 10.491 6.38505 21.7859 
1825 5 7.72486 4.94569 21.2767 
1826 4 7.31095 5.52743 20.5765 
871 1 6.48132 2.37187 16.5808 
872 1 9.22012 0.79062 16.5808 
875 2 7.39425 0.79062 18.1617 
876 2 10.1331 2.37187 18.1617 
877 1 11.9589 2.37187 16.5808 
925 1 6.48132 5.53437 16.5808 
926 1 9.22012 3.95312 16.5808 
929 2 7.39425 3.95312 18.1617 
930 2 10.1331 5.53437 18.1617 
931 1 11.9589 5.53437 16.5808 
980 1 9.22012 7.11562 16.5808 
983 2 7.39425 7.11562 18.1617 
1770 4 8.77082 1.9862 21.1975 
1846 5 8.40089 8.20069 21.2212 
1847 4 8.12682 8.28437 22.1792 
1852 5 11.9398 2.24479 21.0706 
1853 4 11.9154 1.24965 21.1661 
1854 4 11.0084 2.59207 20.9613 
1859 4 6.74844 2.00526 21.5118 
1860 4 6.67434 3.61459 21.2449 
1848 4 9.05397 7.44945 21.1257 
1773 4 11.3763 6.04279 21.4712 
1894 5 16.3967 4.38792 22.565 
1842 4 12.4176 8.11603 20.6628 
1815 4 15.0887 2.27882 21.0611 
1783 5 13.1034 5.63517 21.3277 
1785 4 13.3885 4.72057 21.0409 
878 1 14.6977 0.79062 16.5808 
881 2 12.8719 0.79062 18.1617 
882 2 15.6107 2.37187 18.1617 
883 1 17.4365 2.37187 16.5808 
887 2 18.3495 0.79062 18.1617 
932 1 14.6977 3.95312 16.5808 
935 2 12.8719 3.95312 18.1617 
936 2 15.6107 5.53437 18.1617 
937 1 17.4365 5.53437 16.5808 
941 2 18.3495 3.95312 18.1617 
986 1 14.6977 7.11562 16.5808 
989 2 12.8719 7.11562 18.1617 
995 2 18.3495 7.11562 18.1617 
1756 5 15.6828 0.541802 21.1685 
1784 4 13.8681 6.27094 21.2224 
1814 4 13.529 2.76008 21.1088 
1891 5 18.3463 0.659334 21.7994 
1893 4 17.3686 0.665231 21.5896 
1757 4 15.1632 0.187797 21.9461 
1896 4 17.0759 4.85997 22.0029 
2005 5 15.2333 7.23675 21.4338 
2006 4 16.0369 7.66223 21.0175 
2007 4 15.3795 7.14039 22.4183 
2091 4 18.0811 6.7094 21.1964 
1813 5 14.4796 3.0647 21.1679 
1895 4 15.7042 3.97437 21.9739 
2020 5 17.6652 8.44455 21.0039 
1985 4 24.4779 2.08761 21.3553 
2089 5 18.4819 5.83998 21.4852 
1966 5 23.1335 0.966974 21.6852 
1892 4 18.7687 1.49277 21.4431 
884 1 20.1753 0.79062 16.5808 
888 2 21.0883 2.37187 18.1617 
889 1 22.9141 2.37187 16.5808 
893 2 23.8271 0.79062 18.1617 
938 1 20.1753 3.95312 16.5808 
942 2 21.0883 5.53437 18.1617 
943 1 22.9141 5.53437 16.5808 
947 2 23.8271 3.95312 18.1617 
992 1 20.1753 7.11562 16.5808 
1001 2 23.8271 7.11562 18.1617 
1975 5 24.379 5.23174 21.3046 
1977 4 24.6471 6.11545 20.921 
1978 5 22.4955 8.13686 21.0637 
1979 4 21.9914 7.27978 21.1699 
1980 4 23.4751 7.94292 21.01 
2053 5 21.137 5.90503 21.639 
2054 4 21.4701 4.99141 21.4058 
2056 5 19.3958 3.05499 21.1743 
2057 4 18.9689 3.95566 21.2551 
2058 4 20.3801 3.16396 21.0353 
2059 5 22.2001 3.48469 21.0606 
2060 4 23.0172 4.04819 20.9387 
2061 4 22.4678 2.52614 21.1582 
2090 4 19.4779 5.89159 21.4124 
1976 4 24.3216 5.30426 22.3004 
1967 4 22.5357 0.837716 22.4765 
3701 4 0.154088 11.2666 9.96092 
1833 4 3.43835 7.66974 20.4755 
2022 4 18.6192 8.73478 20.9288 
1921 5 4.39924 16.6234 21.1941 
1782 4 4.332 10.2136 21.149 
1845 4 5.23009 8.50156 22.509 
973 1 1.00371 8.69687 16.5808 
978 2 4.65545 8.69687 18.1617 
1027 1 1.00371 11.8594 16.5808 
1028 1 3.74251 10.2781 16.5808 
1031 2 1.91664 10.2781 18.1617 
1032 2 4.65545 11.8594 18.1617 
1081 1 1.00371 15.0219 16.5808 
1082 1 3.74251 13.4406 16.5808 
1085 2 1.91664 13.4406 18.1617 
1086 2 4.65545 15.0219 18.1617 
1136 1 3.74251 16.6031 16.5808 
1139 2 1.91664 16.6031 18.1617 
1804 5 2.19576 14.8981 20.9356 
1805 4 2.61269 15.7976 20.805 
1806 4 1.22157 15.0077 21.1329 
1810 5 0.62408 9.70731 21.1864 
1812 4 1.42773 9.11227 21.1784 
1861 5 1.40545 12.2783 21.2696 
1862 4 1.56543 13.2115 20.9477 
1863 4 2.26961 11.7752 21.2758 
1922 4 5.24185 16.1444 20.9478 
1924 5 4.42924 13.3881 20.9874 
1925 4 3.65891 14.0245 20.948 
1926 4 4.09095 12.4667 21.1788 
1811 4 0.913519 10.6597 21.0903 
1780 5 3.66635 10.8805 21.4838 
1923 4 4.06708 16.2826 22.0736 
1781 4 3.48265 10.711 22.452 
2339 4 7.08325 16.1998 21.9292 
1837 5 5.85126 9.32783 21.0963 
1839 4 6.25504 10.2402 21.0286 
2462 4 10.9155 15.4492 21.3789 
2461 5 9.92659 15.5914 21.4222 
1807 5 6.62487 11.9103 21.1679 
1809 4 5.81038 12.424 20.8983 
1836 4 5.85641 14.363 20.9549 
979 1 6.48132 8.69687 16.5808 
984 2 10.1331 8.69687 18.1617 
985 1 11.9589 8.69687 16.5808 
1033 1 6.48132 11.8594 16.5808 
1034 1 9.22012 10.2781 16.5808 
1037 2 7.39425 10.2781 18.1617 
1038 2 10.1331 11.8594 18.1617 
1039 1 11.9589 11.8594 16.5808 
1087 1 6.48132 15.0219 16.5808 
1088 1 9.22012 13.4406 16.5808 
1091 2 7.39425 13.4406 18.1617 
1092 2 10.1331 15.0219 18.1617 
1093 1 11.9589 15.0219 16.5808 
1142 1 9.22012 16.6031 16.5808 
1145 2 7.39425 16.6031 18.1617 
1766 4 10.613 13.0689 21.5843 
1789 5 9.96029 10.4551 21.1297 
1790 4 9.59927 11.3477 20.8597 
1816 5 9.06536 13.0705 20.912 
1817 4 9.13099 14.0515 21.0942 
1818 4 8.10842 12.785 20.9645 
1834 5 6.59917 15.0302 20.8985 
1835 4 7.19668 14.7996 20.1305 
1838 4 6.52806 8.64294 20.8264 
1841 4 11.4336 9.37519 20.9986 
1791 4 9.25183 9.75934 21.0112 
1808 4 6.76453 12.0003 22.154 
2525 4 13.1712 15.9905 22.1866 
1765 5 11.3996 13.0875 22.2015 
2355 4 17.0622 16.7642 21.2442 
1840 5 12.3093 8.94324 21.2141 
1767 4 12.1381 12.5336 21.817 
2354 4 15.6544 16.0163 20.8904 
2524 5 12.8572 15.6422 21.3034 
990 2 15.6107 8.69687 18.1617 
991 1 17.4365 8.69687 16.5808 
1040 1 14.6977 10.2781 16.5808 
1043 2 12.8719 10.2781 18.1617 
1044 2 15.6107 11.8594 18.1617 
1045 1 17.4365 11.8594 16.5808 
1049 2 18.3495 10.2781 18.1617 
1094 1 14.6977 13.4406 16.5808 
1097 2 12.8719 13.4406 18.1617 
1098 2 15.6107 15.0219 18.1617 
1099 1 17.4365 15.0219 16.5808 
1103 2 18.3495 13.4406 18.1617 
1148 1 14.6977 16.6031 16.5808 
1151 2 12.8719 16.6031 18.1617 
1157 2 18.3495 16.6031 18.1617 
1867 5 14.5635 13.6144 21.0323 
1868 4 14.1939 12.6921 21.1452 
1869 4 15.5622 13.58 21.068 
2353 5 16.5573 15.9032 21.3049 
1876 5 13.5656 11.2438 21.6407 
1877 4 13.1483 10.3787 21.3622 
4692 4 49.3181 3.54054 2.77647 
1936 5 16.2635 10.7122 21.1673 
1937 4 15.2744 10.8069 21.2798 
2017 5 17.3241 13.2702 21.2914 
2018 4 18.259 12.9425 21.1549 
2019 4 17.3016 14.2649 21.1911 
2021 4 17.0757 9.24991 21.0666 
1938 4 16.669 11.6128 21.0106 
2526 4 13.3855 14.8292 21.0588 
1994 4 23.9782 13.6383 21.1375 
2110 5 22.5145 16.2285 21.2118 
2065 5 19.7614 12.1879 21.3222 
2111 4 23.4711 16.4637 21.0399 
2112 4 22.4346 15.7908 22.1074 
2066 4 20.65 12.6317 21.2062 
1046 1 20.1753 10.2781 16.5808 
2067 4 19.8501 11.2098 21.1338 
997 1 22.9141 8.69687 16.5808 
2052 4 22.8642 9.7474 21.3708 
996 2 21.0883 8.69687 18.1617 
4578 4 49.4085 5.13923 8.20241 
2036 4 20.0479 9.53813 22.2389 
1100 1 20.1753 13.4406 16.5808 
1104 2 21.0883 15.0219 18.1617 
1055 2 23.8271 10.2781 18.1617 
1051 1 22.9141 11.8594 16.5808 
1050 2 21.0883 11.8594 18.1617 
1105 1 22.9141 15.0219 16.5808 
1163 2 23.8271 16.6031 18.1617 
2050 5 23.1956 10.6568 21.6221 
1154 1 20.1753 16.6031 16.5808 
1109 2 23.8271 13.4406 18.1617 
2695 5 19.7359 15.9735 21.1656 
2046 4 22.2723 13.0885 19.9595 
2045 4 22.6343 12.1544 21.2491 
2044 5 22.3021 13.0517 20.9584 
2035 5 20.1609 9.52127 21.2454 
2463 4 9.72309 16.5612 21.2881 
4003 5 12.8905 0.0586273 11.8918 
3718 5 0.142222 14.3715 10.7841 
7086 4 14.3738 13.4836 45.4993 
3932 4 19.4751 13.4831 -0.0195631 
7408 5 12.6092 0.247562 45.4623 
3739 5 0.166841 2.4402 9.99283 
3852 4 8.29562 16.8094 6.81501 
4015 5 6.97289 16.8684 9.8092 
1743 4 11.799 2.9878 22.7591 
7116 4 13.7768 5.61498 45.436 
1 1 1.00371 2.37187 28.7425 
2 1 3.74251 0.79062 28.7425 
3 3 1.91664 0.79062 27.1617 
4 3 4.65545 2.37187 27.1617 
55 1 1.00371 5.53437 28.7425 
56 1 3.74251 3.95312 28.7425 
57 3 1.91664 3.95312 27.1617 
58 3 4.65545 5.53437 27.1617 
110 1 3.74251 7.11562 28.7425 
111 3 1.91664 7.11562 27.1617 
1732 5 2.55718 5.52208 23.5792 
1738 5 4.97618 4.14598 24.4502 
1739 4 4.27844 4.84967 24.5843 
1740 4 4.53336 3.26553 24.2807 
1777 5 0.827379 2.70792 24.2955 
1778 4 0.337712 3.32547 23.68 
1779 4 1.81263 2.82515 24.1708 
1801 5 3.52975 1.91092 23.8013 
1802 4 2.92924 1.19 24.1472 
1803 4 3.52444 1.89788 22.8014 
1820 4 6.26941 5.1053 24.054 
2512 5 14.2604 16.7126 23.5144 
1873 5 1.85343 8.14565 24.1082 
1874 4 0.862765 8.04924 24.0119 
1875 4 2.2799 7.24139 24.0875 
1915 5 5.99564 0.762426 23.687 
1916 4 5.11644 1.2237 23.8063 
1844 4 4.99871 8.06617 24.0658 
1917 4 6.73745 1.42085 23.8143 
7 1 6.48132 2.37187 28.7425 
8 1 9.22012 0.79062 28.7425 
9 3 7.39425 0.79062 27.1617 
10 3 10.1331 2.37187 27.1617 
13 1 11.9589 2.37187 28.7425 
61 1 6.48132 5.53437 28.7425 
62 1 9.22012 3.95312 28.7425 
63 3 7.39425 3.95312 27.1617 
64 3 10.1331 5.53437 27.1617 
67 1 11.9589 5.53437 28.7425 
116 1 9.22012 7.11562 28.7425 
117 3 7.39425 7.11562 27.1617 
1729 5 10.6611 7.86607 24.067 
1730 4 11.4087 7.39986 24.54 
1749 4 9.21506 0.881818 24.1719 
1750 5 7.96015 8.22645 23.9455 
1751 4 7.51859 7.32993 23.981 
7999 5 49.4262 5.03921 38.7123 
1774 5 9.6107 4.6044 23.8491 
1775 4 9.75885 5.16477 23.0342 
1776 4 10.4213 4.04445 24.0204 
1819 5 7.04624 5.69996 23.8469 
1821 4 7.89825 5.22143 24.0592 
1909 5 7.93683 2.52446 24.2545 
1910 4 7.4553 2.9206 25.0363 
1911 4 8.58846 3.19072 23.8919 
1752 4 8.93633 8.12504 24.1373 
1747 5 9.45195 0.0626665 23.6495 
1731 4 10.8306 8.85158 24.0657 
1829 4 13.0641 8.7642 22.7393 
9401 4 15.3645 50.5647 43.9238 
14 1 14.6977 0.79062 28.7425 
15 3 12.8719 0.79062 27.1617 
16 3 15.6107 2.37187 27.1617 
19 1 17.4365 2.37187 28.7425 
21 3 18.3495 0.79062 27.1617 
68 1 14.6977 3.95312 28.7425 
69 3 12.8719 3.95312 27.1617 
70 3 15.6107 5.53437 27.1617 
73 1 17.4365 5.53437 28.7425 
75 3 18.3495 3.95312 27.1617 
122 1 14.6977 7.11562 28.7425 
123 3 12.8719 7.11562 27.1617 
129 3 18.3495 7.11562 27.1617 
1741 5 11.9546 3.20429 23.7229 
1742 4 12.7252 2.66656 24.0651 
1828 5 13.4718 8.59706 23.637 
1830 4 13.3436 7.63757 23.8879 
1879 5 15.6415 6.46287 24.0592 
1880 4 15.9886 5.63342 23.6216 
1881 4 14.7552 6.27137 24.4808 
1888 5 12.866 5.87815 24.0376 
1889 4 12.5287 5.01376 24.4105 
1890 4 12.9728 5.79461 23.0468 
1900 5 14.0972 1.59293 24.4029 